LAMMPS '*.data' description 

       2 atoms
       1 bonds
       1 atom types
       1 bond types

    0.0 38.0545      xlo xhi
    0.0 38.0545      ylo yhi
    0.0 38.0545      zlo zhi

Atoms

      1    1  1  1.0000    1.0000    1.0000
      2    1  1  1.0000    1.0000    2.3300

Bonds

      1   1      1      2
