LAMMPS data file via write_data, version 4 May 2017, timestep = 0

1716 atoms
4 atom types
35 bonds
2 bond types
66 angles
3 angle types
9 dihedrals
1 dihedral types

0.0000000000000000e+00 3.6000000000000000e+01 xlo xhi
0.0000000000000000e+00 3.6000000000000000e+01 ylo yhi
-1.8000000000000000e+01 1.8000000000000000e+01 zlo zhi

Masses

1 10
2 10
3 13
4 50

Pair Coeffs # lj/cut

1 0.6 3
2 0.05 3
3 0.05 2
4 0.5 2

Bond Coeffs # harmonic

1 30 1.2
2 30 2

Angle Coeffs # harmonic

1 50 160
2 50 120
3 50 120

Dihedral Coeffs # opls

1 1.41104 -0.271016 3.14503 0

Atoms # full

1 1 1 0.0000000000000000e+00 0.0000000000000000e+00 0.0000000000000000e+00 -1.8000000000000000e+01 0 0 1
2 2 1 0.0000000000000000e+00 0.0000000000000000e+00 0.0000000000000000e+00 -1.5000000000000000e+01 0 0 1
3 3 1 0.0000000000000000e+00 0.0000000000000000e+00 0.0000000000000000e+00 -9.0000000000000000e+00 0 0 1
4 4 1 0.0000000000000000e+00 0.0000000000000000e+00 0.0000000000000000e+00 -6.0000000000000000e+00 0 0 1
5 5 1 0.0000000000000000e+00 0.0000000000000000e+00 0.0000000000000000e+00 -3.0000000000000000e+00 0 0 1
6 6 1 0.0000000000000000e+00 0.0000000000000000e+00 0.0000000000000000e+00 0.0000000000000000e+00 0 0 1
7 7 1 0.0000000000000000e+00 0.0000000000000000e+00 0.0000000000000000e+00 3.0000000000000000e+00 0 0 1
8 8 1 0.0000000000000000e+00 0.0000000000000000e+00 0.0000000000000000e+00 9.0000000000000000e+00 0 0 1
9 9 1 0.0000000000000000e+00 0.0000000000000000e+00 0.0000000000000000e+00 1.2000000000000000e+01 0 0 1
10 10 1 0.0000000000000000e+00 0.0000000000000000e+00 0.0000000000000000e+00 1.5000000000000000e+01 0 0 1
11 11 1 0.0000000000000000e+00 0.0000000000000000e+00 3.0000000000000000e+00 -1.8000000000000000e+01 0 0 1
12 12 1 0.0000000000000000e+00 0.0000000000000000e+00 3.0000000000000000e+00 -1.5000000000000000e+01 0 0 1
13 13 1 0.0000000000000000e+00 0.0000000000000000e+00 3.0000000000000000e+00 -9.0000000000000000e+00 0 0 1
14 14 1 0.0000000000000000e+00 0.0000000000000000e+00 3.0000000000000000e+00 -6.0000000000000000e+00 0 0 1
15 15 1 0.0000000000000000e+00 0.0000000000000000e+00 3.0000000000000000e+00 -3.0000000000000000e+00 0 0 1
16 16 1 0.0000000000000000e+00 0.0000000000000000e+00 3.0000000000000000e+00 0.0000000000000000e+00 0 0 1
17 17 1 0.0000000000000000e+00 0.0000000000000000e+00 3.0000000000000000e+00 3.0000000000000000e+00 0 0 1
18 18 1 0.0000000000000000e+00 0.0000000000000000e+00 3.0000000000000000e+00 9.0000000000000000e+00 0 0 1
19 19 1 0.0000000000000000e+00 0.0000000000000000e+00 3.0000000000000000e+00 1.2000000000000000e+01 0 0 1
20 20 1 0.0000000000000000e+00 0.0000000000000000e+00 3.0000000000000000e+00 1.5000000000000000e+01 0 0 1
21 21 1 0.0000000000000000e+00 0.0000000000000000e+00 6.0000000000000000e+00 -1.8000000000000000e+01 0 0 1
22 22 1 0.0000000000000000e+00 0.0000000000000000e+00 6.0000000000000000e+00 -1.5000000000000000e+01 0 0 1
23 23 1 0.0000000000000000e+00 0.0000000000000000e+00 6.0000000000000000e+00 -9.0000000000000000e+00 0 0 1
24 24 1 0.0000000000000000e+00 0.0000000000000000e+00 6.0000000000000000e+00 -6.0000000000000000e+00 0 0 1
25 25 1 0.0000000000000000e+00 0.0000000000000000e+00 6.0000000000000000e+00 -3.0000000000000000e+00 0 0 1
26 26 1 0.0000000000000000e+00 0.0000000000000000e+00 6.0000000000000000e+00 0.0000000000000000e+00 0 0 1
27 27 1 0.0000000000000000e+00 0.0000000000000000e+00 6.0000000000000000e+00 3.0000000000000000e+00 0 0 1
28 28 1 0.0000000000000000e+00 0.0000000000000000e+00 6.0000000000000000e+00 9.0000000000000000e+00 0 0 1
29 29 1 0.0000000000000000e+00 0.0000000000000000e+00 6.0000000000000000e+00 1.2000000000000000e+01 0 0 1
30 30 1 0.0000000000000000e+00 0.0000000000000000e+00 6.0000000000000000e+00 1.5000000000000000e+01 0 0 1
31 31 1 0.0000000000000000e+00 0.0000000000000000e+00 9.0000000000000000e+00 -1.8000000000000000e+01 0 0 1
32 32 1 0.0000000000000000e+00 0.0000000000000000e+00 9.0000000000000000e+00 -1.5000000000000000e+01 0 0 1
33 33 1 0.0000000000000000e+00 0.0000000000000000e+00 9.0000000000000000e+00 -9.0000000000000000e+00 0 0 1
34 34 1 0.0000000000000000e+00 0.0000000000000000e+00 9.0000000000000000e+00 -6.0000000000000000e+00 0 0 1
35 35 1 0.0000000000000000e+00 0.0000000000000000e+00 9.0000000000000000e+00 -3.0000000000000000e+00 0 0 1
36 36 1 0.0000000000000000e+00 0.0000000000000000e+00 9.0000000000000000e+00 0.0000000000000000e+00 0 0 1
37 37 1 0.0000000000000000e+00 0.0000000000000000e+00 9.0000000000000000e+00 3.0000000000000000e+00 0 0 1
38 38 1 0.0000000000000000e+00 0.0000000000000000e+00 9.0000000000000000e+00 9.0000000000000000e+00 0 0 1
39 39 1 0.0000000000000000e+00 0.0000000000000000e+00 9.0000000000000000e+00 1.2000000000000000e+01 0 0 1
40 40 1 0.0000000000000000e+00 0.0000000000000000e+00 9.0000000000000000e+00 1.5000000000000000e+01 0 0 1
41 41 1 0.0000000000000000e+00 0.0000000000000000e+00 1.2000000000000000e+01 -1.8000000000000000e+01 0 0 1
42 42 1 0.0000000000000000e+00 0.0000000000000000e+00 1.2000000000000000e+01 -1.5000000000000000e+01 0 0 1
43 43 1 0.0000000000000000e+00 0.0000000000000000e+00 1.2000000000000000e+01 -9.0000000000000000e+00 0 0 1
44 44 1 0.0000000000000000e+00 0.0000000000000000e+00 1.2000000000000000e+01 -6.0000000000000000e+00 0 0 1
45 45 1 0.0000000000000000e+00 0.0000000000000000e+00 1.2000000000000000e+01 -3.0000000000000000e+00 0 0 1
46 46 1 0.0000000000000000e+00 0.0000000000000000e+00 1.2000000000000000e+01 0.0000000000000000e+00 0 0 1
47 47 1 0.0000000000000000e+00 0.0000000000000000e+00 1.2000000000000000e+01 3.0000000000000000e+00 0 0 1
48 48 1 0.0000000000000000e+00 0.0000000000000000e+00 1.2000000000000000e+01 9.0000000000000000e+00 0 0 1
49 49 1 0.0000000000000000e+00 0.0000000000000000e+00 1.2000000000000000e+01 1.2000000000000000e+01 0 0 1
50 50 1 0.0000000000000000e+00 0.0000000000000000e+00 1.2000000000000000e+01 1.5000000000000000e+01 0 0 1
51 51 1 0.0000000000000000e+00 0.0000000000000000e+00 1.5000000000000000e+01 -1.8000000000000000e+01 0 0 1
52 52 1 0.0000000000000000e+00 0.0000000000000000e+00 1.5000000000000000e+01 -1.5000000000000000e+01 0 0 1
53 53 1 0.0000000000000000e+00 0.0000000000000000e+00 1.5000000000000000e+01 -9.0000000000000000e+00 0 0 1
54 54 1 0.0000000000000000e+00 0.0000000000000000e+00 1.5000000000000000e+01 -6.0000000000000000e+00 0 0 1
55 55 1 0.0000000000000000e+00 0.0000000000000000e+00 1.5000000000000000e+01 -3.0000000000000000e+00 0 0 1
56 56 1 0.0000000000000000e+00 0.0000000000000000e+00 1.5000000000000000e+01 0.0000000000000000e+00 0 0 1
57 57 1 0.0000000000000000e+00 0.0000000000000000e+00 1.5000000000000000e+01 3.0000000000000000e+00 0 0 1
58 58 1 0.0000000000000000e+00 0.0000000000000000e+00 1.5000000000000000e+01 9.0000000000000000e+00 0 0 1
59 59 1 0.0000000000000000e+00 0.0000000000000000e+00 1.5000000000000000e+01 1.2000000000000000e+01 0 0 1
60 60 1 0.0000000000000000e+00 0.0000000000000000e+00 1.5000000000000000e+01 1.5000000000000000e+01 0 0 1
61 61 1 0.0000000000000000e+00 0.0000000000000000e+00 1.8000000000000000e+01 -1.8000000000000000e+01 0 0 1
62 62 1 0.0000000000000000e+00 0.0000000000000000e+00 1.8000000000000000e+01 -1.5000000000000000e+01 0 0 1
63 63 1 0.0000000000000000e+00 0.0000000000000000e+00 1.8000000000000000e+01 -9.0000000000000000e+00 0 0 1
64 64 1 0.0000000000000000e+00 0.0000000000000000e+00 1.8000000000000000e+01 -6.0000000000000000e+00 0 0 1
65 65 1 0.0000000000000000e+00 0.0000000000000000e+00 1.8000000000000000e+01 -3.0000000000000000e+00 0 0 1
66 66 1 0.0000000000000000e+00 0.0000000000000000e+00 1.8000000000000000e+01 0.0000000000000000e+00 0 0 1
67 67 1 0.0000000000000000e+00 0.0000000000000000e+00 1.8000000000000000e+01 3.0000000000000000e+00 0 0 1
68 68 1 0.0000000000000000e+00 0.0000000000000000e+00 1.8000000000000000e+01 9.0000000000000000e+00 0 0 1
69 69 1 0.0000000000000000e+00 0.0000000000000000e+00 1.8000000000000000e+01 1.2000000000000000e+01 0 0 1
70 70 1 0.0000000000000000e+00 0.0000000000000000e+00 1.8000000000000000e+01 1.5000000000000000e+01 0 0 1
71 71 1 0.0000000000000000e+00 0.0000000000000000e+00 2.1000000000000000e+01 -1.8000000000000000e+01 0 0 1
72 72 1 0.0000000000000000e+00 0.0000000000000000e+00 2.1000000000000000e+01 -1.5000000000000000e+01 0 0 1
73 73 1 0.0000000000000000e+00 0.0000000000000000e+00 2.1000000000000000e+01 -9.0000000000000000e+00 0 0 1
74 74 1 0.0000000000000000e+00 0.0000000000000000e+00 2.1000000000000000e+01 -6.0000000000000000e+00 0 0 1
75 75 1 0.0000000000000000e+00 0.0000000000000000e+00 2.1000000000000000e+01 -3.0000000000000000e+00 0 0 1
76 76 1 0.0000000000000000e+00 0.0000000000000000e+00 2.1000000000000000e+01 0.0000000000000000e+00 0 0 1
77 77 1 0.0000000000000000e+00 0.0000000000000000e+00 2.1000000000000000e+01 3.0000000000000000e+00 0 0 1
78 78 1 0.0000000000000000e+00 0.0000000000000000e+00 2.1000000000000000e+01 9.0000000000000000e+00 0 0 1
79 79 1 0.0000000000000000e+00 0.0000000000000000e+00 2.1000000000000000e+01 1.2000000000000000e+01 0 0 1
80 80 1 0.0000000000000000e+00 0.0000000000000000e+00 2.1000000000000000e+01 1.5000000000000000e+01 0 0 1
81 81 1 0.0000000000000000e+00 0.0000000000000000e+00 2.4000000000000000e+01 -1.8000000000000000e+01 0 0 1
82 82 1 0.0000000000000000e+00 0.0000000000000000e+00 2.4000000000000000e+01 -1.5000000000000000e+01 0 0 1
83 83 1 0.0000000000000000e+00 0.0000000000000000e+00 2.4000000000000000e+01 -9.0000000000000000e+00 0 0 1
84 84 1 0.0000000000000000e+00 0.0000000000000000e+00 2.4000000000000000e+01 -6.0000000000000000e+00 0 0 1
85 85 1 0.0000000000000000e+00 0.0000000000000000e+00 2.4000000000000000e+01 -3.0000000000000000e+00 0 0 1
86 86 1 0.0000000000000000e+00 0.0000000000000000e+00 2.4000000000000000e+01 0.0000000000000000e+00 0 0 1
87 87 1 0.0000000000000000e+00 0.0000000000000000e+00 2.4000000000000000e+01 3.0000000000000000e+00 0 0 1
88 88 1 0.0000000000000000e+00 0.0000000000000000e+00 2.4000000000000000e+01 9.0000000000000000e+00 0 0 1
89 89 1 0.0000000000000000e+00 0.0000000000000000e+00 2.4000000000000000e+01 1.2000000000000000e+01 0 0 1
90 90 1 0.0000000000000000e+00 0.0000000000000000e+00 2.4000000000000000e+01 1.5000000000000000e+01 0 0 1
91 91 1 0.0000000000000000e+00 0.0000000000000000e+00 2.7000000000000000e+01 -1.8000000000000000e+01 0 0 1
92 92 1 0.0000000000000000e+00 0.0000000000000000e+00 2.7000000000000000e+01 -1.5000000000000000e+01 0 0 1
93 93 1 0.0000000000000000e+00 0.0000000000000000e+00 2.7000000000000000e+01 -9.0000000000000000e+00 0 0 1
94 94 1 0.0000000000000000e+00 0.0000000000000000e+00 2.7000000000000000e+01 -6.0000000000000000e+00 0 0 1
95 95 1 0.0000000000000000e+00 0.0000000000000000e+00 2.7000000000000000e+01 -3.0000000000000000e+00 0 0 1
96 96 1 0.0000000000000000e+00 0.0000000000000000e+00 2.7000000000000000e+01 0.0000000000000000e+00 0 0 1
97 97 1 0.0000000000000000e+00 0.0000000000000000e+00 2.7000000000000000e+01 3.0000000000000000e+00 0 0 1
98 98 1 0.0000000000000000e+00 0.0000000000000000e+00 2.7000000000000000e+01 9.0000000000000000e+00 0 0 1
99 99 1 0.0000000000000000e+00 0.0000000000000000e+00 2.7000000000000000e+01 1.2000000000000000e+01 0 0 1
100 100 1 0.0000000000000000e+00 0.0000000000000000e+00 2.7000000000000000e+01 1.5000000000000000e+01 0 0 1
101 101 1 0.0000000000000000e+00 0.0000000000000000e+00 3.0000000000000000e+01 -1.8000000000000000e+01 0 0 1
102 102 1 0.0000000000000000e+00 0.0000000000000000e+00 3.0000000000000000e+01 -1.5000000000000000e+01 0 0 1
103 103 1 0.0000000000000000e+00 0.0000000000000000e+00 3.0000000000000000e+01 -9.0000000000000000e+00 0 0 1
104 104 1 0.0000000000000000e+00 0.0000000000000000e+00 3.0000000000000000e+01 -6.0000000000000000e+00 0 0 1
105 105 1 0.0000000000000000e+00 0.0000000000000000e+00 3.0000000000000000e+01 -3.0000000000000000e+00 0 0 1
106 106 1 0.0000000000000000e+00 0.0000000000000000e+00 3.0000000000000000e+01 0.0000000000000000e+00 0 0 1
107 107 1 0.0000000000000000e+00 0.0000000000000000e+00 3.0000000000000000e+01 3.0000000000000000e+00 0 0 1
108 108 1 0.0000000000000000e+00 0.0000000000000000e+00 3.0000000000000000e+01 9.0000000000000000e+00 0 0 1
109 109 1 0.0000000000000000e+00 0.0000000000000000e+00 3.0000000000000000e+01 1.2000000000000000e+01 0 0 1
110 110 1 0.0000000000000000e+00 0.0000000000000000e+00 3.0000000000000000e+01 1.5000000000000000e+01 0 0 1
111 111 1 0.0000000000000000e+00 0.0000000000000000e+00 3.3000000000000000e+01 -1.8000000000000000e+01 0 0 1
112 112 1 0.0000000000000000e+00 0.0000000000000000e+00 3.3000000000000000e+01 -1.5000000000000000e+01 0 0 1
113 113 1 0.0000000000000000e+00 0.0000000000000000e+00 3.3000000000000000e+01 -9.0000000000000000e+00 0 0 1
114 114 1 0.0000000000000000e+00 0.0000000000000000e+00 3.3000000000000000e+01 -6.0000000000000000e+00 0 0 1
115 115 1 0.0000000000000000e+00 0.0000000000000000e+00 3.3000000000000000e+01 -3.0000000000000000e+00 0 0 1
116 116 1 0.0000000000000000e+00 0.0000000000000000e+00 3.3000000000000000e+01 0.0000000000000000e+00 0 0 1
117 117 1 0.0000000000000000e+00 0.0000000000000000e+00 3.3000000000000000e+01 3.0000000000000000e+00 0 0 1
118 118 1 0.0000000000000000e+00 0.0000000000000000e+00 3.3000000000000000e+01 9.0000000000000000e+00 0 0 1
119 119 1 0.0000000000000000e+00 0.0000000000000000e+00 3.3000000000000000e+01 1.2000000000000000e+01 0 0 1
120 120 1 0.0000000000000000e+00 0.0000000000000000e+00 3.3000000000000000e+01 1.5000000000000000e+01 0 0 1
121 121 1 0.0000000000000000e+00 3.0000000000000000e+00 0.0000000000000000e+00 -1.8000000000000000e+01 0 0 1
122 122 1 0.0000000000000000e+00 3.0000000000000000e+00 0.0000000000000000e+00 -1.5000000000000000e+01 0 0 1
123 123 1 0.0000000000000000e+00 3.0000000000000000e+00 0.0000000000000000e+00 -9.0000000000000000e+00 0 0 1
124 124 1 0.0000000000000000e+00 3.0000000000000000e+00 0.0000000000000000e+00 -6.0000000000000000e+00 0 0 1
125 125 1 0.0000000000000000e+00 3.0000000000000000e+00 0.0000000000000000e+00 -3.0000000000000000e+00 0 0 1
126 126 1 0.0000000000000000e+00 3.0000000000000000e+00 0.0000000000000000e+00 0.0000000000000000e+00 0 0 1
127 127 1 0.0000000000000000e+00 3.0000000000000000e+00 0.0000000000000000e+00 3.0000000000000000e+00 0 0 1
128 128 1 0.0000000000000000e+00 3.0000000000000000e+00 0.0000000000000000e+00 9.0000000000000000e+00 0 0 1
129 129 1 0.0000000000000000e+00 3.0000000000000000e+00 0.0000000000000000e+00 1.2000000000000000e+01 0 0 1
130 130 1 0.0000000000000000e+00 3.0000000000000000e+00 0.0000000000000000e+00 1.5000000000000000e+01 0 0 1
131 131 1 0.0000000000000000e+00 3.0000000000000000e+00 3.0000000000000000e+00 -1.8000000000000000e+01 0 0 1
132 132 1 0.0000000000000000e+00 3.0000000000000000e+00 3.0000000000000000e+00 -1.5000000000000000e+01 0 0 1
133 133 1 0.0000000000000000e+00 3.0000000000000000e+00 3.0000000000000000e+00 -9.0000000000000000e+00 0 0 1
134 134 1 0.0000000000000000e+00 3.0000000000000000e+00 3.0000000000000000e+00 -6.0000000000000000e+00 0 0 1
135 135 1 0.0000000000000000e+00 3.0000000000000000e+00 3.0000000000000000e+00 -3.0000000000000000e+00 0 0 1
136 136 1 0.0000000000000000e+00 3.0000000000000000e+00 3.0000000000000000e+00 0.0000000000000000e+00 0 0 1
137 137 1 0.0000000000000000e+00 3.0000000000000000e+00 3.0000000000000000e+00 3.0000000000000000e+00 0 0 1
138 138 1 0.0000000000000000e+00 3.0000000000000000e+00 3.0000000000000000e+00 9.0000000000000000e+00 0 0 1
139 139 1 0.0000000000000000e+00 3.0000000000000000e+00 3.0000000000000000e+00 1.2000000000000000e+01 0 0 1
140 140 1 0.0000000000000000e+00 3.0000000000000000e+00 3.0000000000000000e+00 1.5000000000000000e+01 0 0 1
141 141 1 0.0000000000000000e+00 3.0000000000000000e+00 6.0000000000000000e+00 -1.8000000000000000e+01 0 0 1
142 142 1 0.0000000000000000e+00 3.0000000000000000e+00 6.0000000000000000e+00 -1.5000000000000000e+01 0 0 1
143 143 1 0.0000000000000000e+00 3.0000000000000000e+00 6.0000000000000000e+00 -9.0000000000000000e+00 0 0 1
144 144 1 0.0000000000000000e+00 3.0000000000000000e+00 6.0000000000000000e+00 -6.0000000000000000e+00 0 0 1
145 145 1 0.0000000000000000e+00 3.0000000000000000e+00 6.0000000000000000e+00 -3.0000000000000000e+00 0 0 1
146 146 1 0.0000000000000000e+00 3.0000000000000000e+00 6.0000000000000000e+00 0.0000000000000000e+00 0 0 1
147 147 1 0.0000000000000000e+00 3.0000000000000000e+00 6.0000000000000000e+00 3.0000000000000000e+00 0 0 1
148 148 1 0.0000000000000000e+00 3.0000000000000000e+00 6.0000000000000000e+00 9.0000000000000000e+00 0 0 1
149 149 1 0.0000000000000000e+00 3.0000000000000000e+00 6.0000000000000000e+00 1.2000000000000000e+01 0 0 1
150 150 1 0.0000000000000000e+00 3.0000000000000000e+00 6.0000000000000000e+00 1.5000000000000000e+01 0 0 1
151 151 1 0.0000000000000000e+00 3.0000000000000000e+00 9.0000000000000000e+00 -1.8000000000000000e+01 0 0 1
152 152 1 0.0000000000000000e+00 3.0000000000000000e+00 9.0000000000000000e+00 -1.5000000000000000e+01 0 0 1
153 153 1 0.0000000000000000e+00 3.0000000000000000e+00 9.0000000000000000e+00 -9.0000000000000000e+00 0 0 1
154 154 1 0.0000000000000000e+00 3.0000000000000000e+00 9.0000000000000000e+00 -6.0000000000000000e+00 0 0 1
155 155 1 0.0000000000000000e+00 3.0000000000000000e+00 9.0000000000000000e+00 -3.0000000000000000e+00 0 0 1
156 156 1 0.0000000000000000e+00 3.0000000000000000e+00 9.0000000000000000e+00 0.0000000000000000e+00 0 0 1
157 157 1 0.0000000000000000e+00 3.0000000000000000e+00 9.0000000000000000e+00 3.0000000000000000e+00 0 0 1
158 158 1 0.0000000000000000e+00 3.0000000000000000e+00 9.0000000000000000e+00 9.0000000000000000e+00 0 0 1
159 159 1 0.0000000000000000e+00 3.0000000000000000e+00 9.0000000000000000e+00 1.2000000000000000e+01 0 0 1
160 160 1 0.0000000000000000e+00 3.0000000000000000e+00 9.0000000000000000e+00 1.5000000000000000e+01 0 0 1
161 161 1 0.0000000000000000e+00 3.0000000000000000e+00 1.2000000000000000e+01 -1.8000000000000000e+01 0 0 1
162 162 1 0.0000000000000000e+00 3.0000000000000000e+00 1.2000000000000000e+01 -1.5000000000000000e+01 0 0 1
163 163 1 0.0000000000000000e+00 3.0000000000000000e+00 1.2000000000000000e+01 -9.0000000000000000e+00 0 0 1
164 164 1 0.0000000000000000e+00 3.0000000000000000e+00 1.2000000000000000e+01 -6.0000000000000000e+00 0 0 1
165 165 1 0.0000000000000000e+00 3.0000000000000000e+00 1.2000000000000000e+01 -3.0000000000000000e+00 0 0 1
166 166 1 0.0000000000000000e+00 3.0000000000000000e+00 1.2000000000000000e+01 0.0000000000000000e+00 0 0 1
167 167 1 0.0000000000000000e+00 3.0000000000000000e+00 1.2000000000000000e+01 3.0000000000000000e+00 0 0 1
168 168 1 0.0000000000000000e+00 3.0000000000000000e+00 1.2000000000000000e+01 9.0000000000000000e+00 0 0 1
169 169 1 0.0000000000000000e+00 3.0000000000000000e+00 1.2000000000000000e+01 1.2000000000000000e+01 0 0 1
170 170 1 0.0000000000000000e+00 3.0000000000000000e+00 1.2000000000000000e+01 1.5000000000000000e+01 0 0 1
171 171 1 0.0000000000000000e+00 3.0000000000000000e+00 1.5000000000000000e+01 -1.8000000000000000e+01 0 0 1
172 172 1 0.0000000000000000e+00 3.0000000000000000e+00 1.5000000000000000e+01 -1.5000000000000000e+01 0 0 1
173 173 1 0.0000000000000000e+00 3.0000000000000000e+00 1.5000000000000000e+01 -9.0000000000000000e+00 0 0 1
174 174 1 0.0000000000000000e+00 3.0000000000000000e+00 1.5000000000000000e+01 -6.0000000000000000e+00 0 0 1
175 175 1 0.0000000000000000e+00 3.0000000000000000e+00 1.5000000000000000e+01 -3.0000000000000000e+00 0 0 1
176 176 1 0.0000000000000000e+00 3.0000000000000000e+00 1.5000000000000000e+01 0.0000000000000000e+00 0 0 1
177 177 1 0.0000000000000000e+00 3.0000000000000000e+00 1.5000000000000000e+01 3.0000000000000000e+00 0 0 1
178 178 1 0.0000000000000000e+00 3.0000000000000000e+00 1.5000000000000000e+01 9.0000000000000000e+00 0 0 1
179 179 1 0.0000000000000000e+00 3.0000000000000000e+00 1.5000000000000000e+01 1.2000000000000000e+01 0 0 1
180 180 1 0.0000000000000000e+00 3.0000000000000000e+00 1.5000000000000000e+01 1.5000000000000000e+01 0 0 1
181 181 1 0.0000000000000000e+00 3.0000000000000000e+00 1.8000000000000000e+01 -1.8000000000000000e+01 0 0 1
182 182 1 0.0000000000000000e+00 3.0000000000000000e+00 1.8000000000000000e+01 -1.5000000000000000e+01 0 0 1
183 183 1 0.0000000000000000e+00 3.0000000000000000e+00 1.8000000000000000e+01 -9.0000000000000000e+00 0 0 1
184 184 1 0.0000000000000000e+00 3.0000000000000000e+00 1.8000000000000000e+01 -6.0000000000000000e+00 0 0 1
185 185 1 0.0000000000000000e+00 3.0000000000000000e+00 1.8000000000000000e+01 -3.0000000000000000e+00 0 0 1
186 186 1 0.0000000000000000e+00 3.0000000000000000e+00 1.8000000000000000e+01 0.0000000000000000e+00 0 0 1
187 187 1 0.0000000000000000e+00 3.0000000000000000e+00 1.8000000000000000e+01 3.0000000000000000e+00 0 0 1
188 188 1 0.0000000000000000e+00 3.0000000000000000e+00 1.8000000000000000e+01 9.0000000000000000e+00 0 0 1
189 189 1 0.0000000000000000e+00 3.0000000000000000e+00 1.8000000000000000e+01 1.2000000000000000e+01 0 0 1
190 190 1 0.0000000000000000e+00 3.0000000000000000e+00 1.8000000000000000e+01 1.5000000000000000e+01 0 0 1
191 191 1 0.0000000000000000e+00 3.0000000000000000e+00 2.1000000000000000e+01 -1.8000000000000000e+01 0 0 1
192 192 1 0.0000000000000000e+00 3.0000000000000000e+00 2.1000000000000000e+01 -1.5000000000000000e+01 0 0 1
193 193 1 0.0000000000000000e+00 3.0000000000000000e+00 2.1000000000000000e+01 -9.0000000000000000e+00 0 0 1
194 194 1 0.0000000000000000e+00 3.0000000000000000e+00 2.1000000000000000e+01 -6.0000000000000000e+00 0 0 1
195 195 1 0.0000000000000000e+00 3.0000000000000000e+00 2.1000000000000000e+01 -3.0000000000000000e+00 0 0 1
196 196 1 0.0000000000000000e+00 3.0000000000000000e+00 2.1000000000000000e+01 0.0000000000000000e+00 0 0 1
197 197 1 0.0000000000000000e+00 3.0000000000000000e+00 2.1000000000000000e+01 3.0000000000000000e+00 0 0 1
198 198 1 0.0000000000000000e+00 3.0000000000000000e+00 2.1000000000000000e+01 9.0000000000000000e+00 0 0 1
199 199 1 0.0000000000000000e+00 3.0000000000000000e+00 2.1000000000000000e+01 1.2000000000000000e+01 0 0 1
200 200 1 0.0000000000000000e+00 3.0000000000000000e+00 2.1000000000000000e+01 1.5000000000000000e+01 0 0 1
201 201 1 0.0000000000000000e+00 3.0000000000000000e+00 2.4000000000000000e+01 -1.8000000000000000e+01 0 0 1
202 202 1 0.0000000000000000e+00 3.0000000000000000e+00 2.4000000000000000e+01 -1.5000000000000000e+01 0 0 1
203 203 1 0.0000000000000000e+00 3.0000000000000000e+00 2.4000000000000000e+01 -9.0000000000000000e+00 0 0 1
204 204 1 0.0000000000000000e+00 3.0000000000000000e+00 2.4000000000000000e+01 -6.0000000000000000e+00 0 0 1
205 205 1 0.0000000000000000e+00 3.0000000000000000e+00 2.4000000000000000e+01 -3.0000000000000000e+00 0 0 1
206 206 1 0.0000000000000000e+00 3.0000000000000000e+00 2.4000000000000000e+01 0.0000000000000000e+00 0 0 1
207 207 1 0.0000000000000000e+00 3.0000000000000000e+00 2.4000000000000000e+01 3.0000000000000000e+00 0 0 1
208 208 1 0.0000000000000000e+00 3.0000000000000000e+00 2.4000000000000000e+01 9.0000000000000000e+00 0 0 1
209 209 1 0.0000000000000000e+00 3.0000000000000000e+00 2.4000000000000000e+01 1.2000000000000000e+01 0 0 1
210 210 1 0.0000000000000000e+00 3.0000000000000000e+00 2.4000000000000000e+01 1.5000000000000000e+01 0 0 1
211 211 1 0.0000000000000000e+00 3.0000000000000000e+00 2.7000000000000000e+01 -1.8000000000000000e+01 0 0 1
212 212 1 0.0000000000000000e+00 3.0000000000000000e+00 2.7000000000000000e+01 -1.5000000000000000e+01 0 0 1
213 213 1 0.0000000000000000e+00 3.0000000000000000e+00 2.7000000000000000e+01 -9.0000000000000000e+00 0 0 1
214 214 1 0.0000000000000000e+00 3.0000000000000000e+00 2.7000000000000000e+01 -6.0000000000000000e+00 0 0 1
215 215 1 0.0000000000000000e+00 3.0000000000000000e+00 2.7000000000000000e+01 -3.0000000000000000e+00 0 0 1
216 216 1 0.0000000000000000e+00 3.0000000000000000e+00 2.7000000000000000e+01 0.0000000000000000e+00 0 0 1
217 217 1 0.0000000000000000e+00 3.0000000000000000e+00 2.7000000000000000e+01 3.0000000000000000e+00 0 0 1
218 218 1 0.0000000000000000e+00 3.0000000000000000e+00 2.7000000000000000e+01 9.0000000000000000e+00 0 0 1
219 219 1 0.0000000000000000e+00 3.0000000000000000e+00 2.7000000000000000e+01 1.2000000000000000e+01 0 0 1
220 220 1 0.0000000000000000e+00 3.0000000000000000e+00 2.7000000000000000e+01 1.5000000000000000e+01 0 0 1
221 221 1 0.0000000000000000e+00 3.0000000000000000e+00 3.0000000000000000e+01 -1.8000000000000000e+01 0 0 1
222 222 1 0.0000000000000000e+00 3.0000000000000000e+00 3.0000000000000000e+01 -1.5000000000000000e+01 0 0 1
223 223 1 0.0000000000000000e+00 3.0000000000000000e+00 3.0000000000000000e+01 -9.0000000000000000e+00 0 0 1
224 224 1 0.0000000000000000e+00 3.0000000000000000e+00 3.0000000000000000e+01 -6.0000000000000000e+00 0 0 1
225 225 1 0.0000000000000000e+00 3.0000000000000000e+00 3.0000000000000000e+01 -3.0000000000000000e+00 0 0 1
226 226 1 0.0000000000000000e+00 3.0000000000000000e+00 3.0000000000000000e+01 0.0000000000000000e+00 0 0 1
227 227 1 0.0000000000000000e+00 3.0000000000000000e+00 3.0000000000000000e+01 3.0000000000000000e+00 0 0 1
228 228 1 0.0000000000000000e+00 3.0000000000000000e+00 3.0000000000000000e+01 9.0000000000000000e+00 0 0 1
229 229 1 0.0000000000000000e+00 3.0000000000000000e+00 3.0000000000000000e+01 1.2000000000000000e+01 0 0 1
230 230 1 0.0000000000000000e+00 3.0000000000000000e+00 3.0000000000000000e+01 1.5000000000000000e+01 0 0 1
231 231 1 0.0000000000000000e+00 3.0000000000000000e+00 3.3000000000000000e+01 -1.8000000000000000e+01 0 0 1
232 232 1 0.0000000000000000e+00 3.0000000000000000e+00 3.3000000000000000e+01 -1.5000000000000000e+01 0 0 1
233 233 1 0.0000000000000000e+00 3.0000000000000000e+00 3.3000000000000000e+01 -9.0000000000000000e+00 0 0 1
234 234 1 0.0000000000000000e+00 3.0000000000000000e+00 3.3000000000000000e+01 -6.0000000000000000e+00 0 0 1
235 235 1 0.0000000000000000e+00 3.0000000000000000e+00 3.3000000000000000e+01 -3.0000000000000000e+00 0 0 1
236 236 1 0.0000000000000000e+00 3.0000000000000000e+00 3.3000000000000000e+01 0.0000000000000000e+00 0 0 1
237 237 1 0.0000000000000000e+00 3.0000000000000000e+00 3.3000000000000000e+01 3.0000000000000000e+00 0 0 1
238 238 1 0.0000000000000000e+00 3.0000000000000000e+00 3.3000000000000000e+01 9.0000000000000000e+00 0 0 1
239 239 1 0.0000000000000000e+00 3.0000000000000000e+00 3.3000000000000000e+01 1.2000000000000000e+01 0 0 1
240 240 1 0.0000000000000000e+00 3.0000000000000000e+00 3.3000000000000000e+01 1.5000000000000000e+01 0 0 1
241 241 1 0.0000000000000000e+00 6.0000000000000000e+00 0.0000000000000000e+00 -1.8000000000000000e+01 0 0 1
242 242 1 0.0000000000000000e+00 6.0000000000000000e+00 0.0000000000000000e+00 -1.5000000000000000e+01 0 0 1
243 243 1 0.0000000000000000e+00 6.0000000000000000e+00 0.0000000000000000e+00 -9.0000000000000000e+00 0 0 1
244 244 1 0.0000000000000000e+00 6.0000000000000000e+00 0.0000000000000000e+00 -6.0000000000000000e+00 0 0 1
245 245 1 0.0000000000000000e+00 6.0000000000000000e+00 0.0000000000000000e+00 -3.0000000000000000e+00 0 0 1
246 246 1 0.0000000000000000e+00 6.0000000000000000e+00 0.0000000000000000e+00 0.0000000000000000e+00 0 0 1
247 247 1 0.0000000000000000e+00 6.0000000000000000e+00 0.0000000000000000e+00 3.0000000000000000e+00 0 0 1
248 248 1 0.0000000000000000e+00 6.0000000000000000e+00 0.0000000000000000e+00 9.0000000000000000e+00 0 0 1
249 249 1 0.0000000000000000e+00 6.0000000000000000e+00 0.0000000000000000e+00 1.2000000000000000e+01 0 0 1
250 250 1 0.0000000000000000e+00 6.0000000000000000e+00 0.0000000000000000e+00 1.5000000000000000e+01 0 0 1
251 251 1 0.0000000000000000e+00 6.0000000000000000e+00 3.0000000000000000e+00 -1.8000000000000000e+01 0 0 1
252 252 1 0.0000000000000000e+00 6.0000000000000000e+00 3.0000000000000000e+00 -1.5000000000000000e+01 0 0 1
253 253 1 0.0000000000000000e+00 6.0000000000000000e+00 3.0000000000000000e+00 -9.0000000000000000e+00 0 0 1
254 254 1 0.0000000000000000e+00 6.0000000000000000e+00 3.0000000000000000e+00 -6.0000000000000000e+00 0 0 1
255 255 1 0.0000000000000000e+00 6.0000000000000000e+00 3.0000000000000000e+00 -3.0000000000000000e+00 0 0 1
256 256 1 0.0000000000000000e+00 6.0000000000000000e+00 3.0000000000000000e+00 0.0000000000000000e+00 0 0 1
257 257 1 0.0000000000000000e+00 6.0000000000000000e+00 3.0000000000000000e+00 3.0000000000000000e+00 0 0 1
258 258 1 0.0000000000000000e+00 6.0000000000000000e+00 3.0000000000000000e+00 9.0000000000000000e+00 0 0 1
259 259 1 0.0000000000000000e+00 6.0000000000000000e+00 3.0000000000000000e+00 1.2000000000000000e+01 0 0 1
260 260 1 0.0000000000000000e+00 6.0000000000000000e+00 3.0000000000000000e+00 1.5000000000000000e+01 0 0 1
261 261 1 0.0000000000000000e+00 6.0000000000000000e+00 6.0000000000000000e+00 -1.8000000000000000e+01 0 0 1
262 262 1 0.0000000000000000e+00 6.0000000000000000e+00 6.0000000000000000e+00 -1.5000000000000000e+01 0 0 1
263 263 1 0.0000000000000000e+00 6.0000000000000000e+00 6.0000000000000000e+00 -9.0000000000000000e+00 0 0 1
264 264 1 0.0000000000000000e+00 6.0000000000000000e+00 6.0000000000000000e+00 -6.0000000000000000e+00 0 0 1
265 265 1 0.0000000000000000e+00 6.0000000000000000e+00 6.0000000000000000e+00 -3.0000000000000000e+00 0 0 1
266 266 1 0.0000000000000000e+00 6.0000000000000000e+00 6.0000000000000000e+00 0.0000000000000000e+00 0 0 1
267 267 1 0.0000000000000000e+00 6.0000000000000000e+00 6.0000000000000000e+00 3.0000000000000000e+00 0 0 1
268 268 1 0.0000000000000000e+00 6.0000000000000000e+00 6.0000000000000000e+00 9.0000000000000000e+00 0 0 1
269 269 1 0.0000000000000000e+00 6.0000000000000000e+00 6.0000000000000000e+00 1.2000000000000000e+01 0 0 1
270 270 1 0.0000000000000000e+00 6.0000000000000000e+00 6.0000000000000000e+00 1.5000000000000000e+01 0 0 1
271 271 1 0.0000000000000000e+00 6.0000000000000000e+00 9.0000000000000000e+00 -1.8000000000000000e+01 0 0 1
272 272 1 0.0000000000000000e+00 6.0000000000000000e+00 9.0000000000000000e+00 -1.5000000000000000e+01 0 0 1
273 273 1 0.0000000000000000e+00 6.0000000000000000e+00 9.0000000000000000e+00 -9.0000000000000000e+00 0 0 1