LAMMPS Description

     2454  atoms
     972  bonds
     486  angles
     0  dihedrals
     0  impropers

     3  atom types
     1  bond types
     1  angle types

  -15.98682895386 15.98682895386 xlo xhi
  -14.91 14.91 ylo yhi
  0.0 80.00 zlo zhi

Masses

    1  12.0
    2 15.9994
    3 1.008

Atoms # full

1 1 1 0.0 -25.2099995042 -15.265 32.0
2 1 1 0.0 -23.9802434308 -14.555 32.0
3 2 1 0.0 -22.7504873574 -15.265 32.0
4 2 1 0.0 -21.520731284 -14.555 32.0
5 3 1 0.0 -20.2909752107 -15.265 32.0
6 3 1 0.0 -19.0612191373 -14.555 32.0
7 4 1 0.0 -17.8314630639 -15.265 32.0
8 4 1 0.0 -16.6017069905 -14.555 32.0
9 5 1 0.0 -15.3719509172 -15.265 32.0
10 5 1 0.0 -14.1421948438 -14.555 32.0
11 6 1 0.0 -12.9124387704 -15.265 32.0
12 6 1 0.0 -11.6826826971 -14.555 32.0
13 7 1 0.0 -10.4529266237 -15.265 32.0
14 7 1 0.0 -9.2231705503 -14.555 32.0
15 8 1 0.0 -7.99341447693 -15.265 32.0
16 8 1 0.0 -6.76365840356 -14.555 32.0
17 9 1 0.0 -5.53390233018 -15.265 32.0
18 9 1 0.0 -4.30414625681 -14.555 32.0
19 10 1 0.0 -3.07439018343 -15.265 32.0
20 10 1 0.0 -1.84463411006 -14.555 32.0
21 11 1 0.0 -0.614878036687 -15.265 32.0
22 11 1 0.0 0.614878036687 -14.555 32.0
23 12 1 0.0 1.84463411006 -15.265 32.0
24 12 1 0.0 3.07439018343 -14.555 32.0
25 13 1 0.0 4.30414625681 -15.265 32.0
26 13 1 0.0 5.53390233018 -14.555 32.0
27 14 1 0.0 -23.9802434308 -13.135 32.0
28 14 1 0.0 -22.7504873574 -12.425 32.0
29 15 1 0.0 -21.520731284 -13.135 32.0
30 15 1 0.0 -20.2909752107 -12.425 32.0
31 16 1 0.0 -19.0612191373 -13.135 32.0
32 16 1 0.0 -17.8314630639 -12.425 32.0
33 17 1 0.0 -16.6017069905 -13.135 32.0
34 17 1 0.0 -15.3719509172 -12.425 32.0
35 18 1 0.0 -14.1421948438 -13.135 32.0
36 18 1 0.0 -12.9124387704 -12.425 32.0
37 19 1 0.0 -11.6826826971 -13.135 32.0
38 19 1 0.0 -10.4529266237 -12.425 32.0
39 20 1 0.0 -9.2231705503 -13.135 32.0
40 20 1 0.0 -7.99341447693 -12.425 32.0
41 21 1 0.0 -6.76365840356 -13.135 32.0
42 21 1 0.0 -5.53390233018 -12.425 32.0
43 22 1 0.0 -4.30414625681 -13.135 32.0
44 22 1 0.0 -3.07439018343 -12.425 32.0
45 23 1 0.0 -1.84463411006 -13.135 32.0
46 23 1 0.0 -0.614878036687 -12.425 32.0
47 24 1 0.0 0.614878036687 -13.135 32.0
48 24 1 0.0 1.84463411006 -12.425 32.0
49 25 1 0.0 3.07439018343 -13.135 32.0
50 25 1 0.0 4.30414625681 -12.425 32.0
51 26 1 0.0 5.53390233018 -13.135 32.0
52 26 1 0.0 6.76365840356 -12.425 32.0
53 27 1 0.0 -22.7504873574 -11.005 32.0
54 27 1 0.0 -21.520731284 -10.295 32.0
55 28 1 0.0 -20.2909752107 -11.005 32.0
56 28 1 0.0 -19.0612191373 -10.295 32.0
57 29 1 0.0 -17.8314630639 -11.005 32.0
58 29 1 0.0 -16.6017069905 -10.295 32.0
59 30 1 0.0 -15.3719509172 -11.005 32.0
60 30 1 0.0 -14.1421948438 -10.295 32.0
61 31 1 0.0 -12.9124387704 -11.005 32.0
62 31 1 0.0 -11.6826826971 -10.295 32.0
63 32 1 0.0 -10.4529266237 -11.005 32.0
64 32 1 0.0 -9.2231705503 -10.295 32.0
65 33 1 0.0 -7.99341447693 -11.005 32.0
66 33 1 0.0 -6.76365840356 -10.295 32.0
67 34 1 0.0 -5.53390233018 -11.005 32.0
68 34 1 0.0 -4.30414625681 -10.295 32.0
69 35 1 0.0 -3.07439018343 -11.005 32.0
70 35 1 0.0 -1.84463411006 -10.295 32.0
71 36 1 0.0 -0.614878036687 -11.005 32.0
72 36 1 0.0 0.614878036687 -10.295 32.0
73 37 1 0.0 1.84463411006 -11.005 32.0
74 37 1 0.0 3.07439018343 -10.295 32.0
75 38 1 0.0 4.30414625681 -11.005 32.0
76 38 1 0.0 5.53390233018 -10.295 32.0
77 39 1 0.0 6.76365840356 -11.005 32.0
78 39 1 0.0 7.99341447693 -10.295 32.0
79 40 1 0.0 -21.520731284 -8.875 32.0
80 40 1 0.0 -20.2909752107 -8.165 32.0
81 41 1 0.0 -19.0612191373 -8.875 32.0
82 41 1 0.0 -17.8314630639 -8.165 32.0
83 42 1 0.0 -16.6017069905 -8.875 32.0
84 42 1 0.0 -15.3719509172 -8.165 32.0
85 43 1 0.0 -14.1421948438 -8.875 32.0
86 43 1 0.0 -12.9124387704 -8.165 32.0
87 44 1 0.0 -11.6826826971 -8.875 32.0
88 44 1 0.0 -10.4529266237 -8.165 32.0
89 45 1 0.0 -9.2231705503 -8.875 32.0
90 45 1 0.0 -7.99341447693 -8.165 32.0
91 46 1 0.0 -6.76365840356 -8.875 32.0
92 46 1 0.0 -5.53390233018 -8.165 32.0
93 47 1 0.0 -4.30414625681 -8.875 32.0
94 47 1 0.0 -3.07439018343 -8.165 32.0
95 48 1 0.0 -1.84463411006 -8.875 32.0
96 48 1 0.0 -0.614878036687 -8.165 32.0
97 49 1 0.0 0.614878036687 -8.875 32.0
98 49 1 0.0 1.84463411006 -8.165 32.0
99 50 1 0.0 3.07439018343 -8.875 32.0
100 50 1 0.0 4.30414625681 -8.165 32.0
101 51 1 0.0 5.53390233018 -8.875 32.0
102 51 1 0.0 6.76365840356 -8.165 32.0
103 52 1 0.0 7.99341447693 -8.875 32.0
104 52 1 0.0 9.2231705503 -8.165 32.0
105 53 1 0.0 -20.2909752107 -6.745 32.0
106 53 1 0.0 -19.0612191373 -6.035 32.0
107 54 1 0.0 -17.8314630639 -6.745 32.0
108 54 1 0.0 -16.6017069905 -6.035 32.0
109 55 1 0.0 -15.3719509172 -6.745 32.0
110 55 1 0.0 -14.1421948438 -6.035 32.0
111 56 1 0.0 -12.9124387704 -6.745 32.0
112 56 1 0.0 -11.6826826971 -6.035 32.0
113 57 1 0.0 -10.4529266237 -6.745 32.0
114 57 1 0.0 -9.2231705503 -6.035 32.0
115 58 1 0.0 -7.99341447693 -6.745 32.0
116 58 1 0.0 -6.76365840356 -6.035 32.0
117 59 1 0.0 -5.53390233018 -6.745 32.0
118 59 1 0.0 -4.30414625681 -6.035 32.0
119 60 1 0.0 -3.07439018343 -6.745 32.0
120 60 1 0.0 -1.84463411006 -6.035 32.0
121 61 1 0.0 -0.614878036687 -6.745 32.0
122 61 1 0.0 0.614878036687 -6.035 32.0
123 62 1 0.0 1.84463411006 -6.745 32.0
124 62 1 0.0 3.07439018343 -6.035 32.0
125 63 1 0.0 4.30414625681 -6.745 32.0
126 63 1 0.0 5.53390233018 -6.035 32.0
127 64 1 0.0 6.76365840356 -6.745 32.0
128 64 1 0.0 7.99341447693 -6.035 32.0
129 65 1 0.0 9.2231705503 -6.745 32.0
130 65 1 0.0 10.4529266237 -6.035 32.0
131 66 1 0.0 -19.0612191373 -4.615 32.0
132 66 1 0.0 -17.8314630639 -3.905 32.0
133 67 1 0.0 -16.6017069905 -4.615 32.0
134 67 1 0.0 -15.3719509172 -3.905 32.0
135 68 1 0.0 -14.1421948438 -4.615 32.0
136 68 1 0.0 -12.9124387704 -3.905 32.0
137 69 1 0.0 -11.6826826971 -4.615 32.0
138 69 1 0.0 -10.4529266237 -3.905 32.0
139 70 1 0.0 -9.2231705503 -4.615 32.0
140 70 1 0.0 -7.99341447693 -3.905 32.0
141 71 1 0.0 -6.76365840356 -4.615 32.0
142 71 1 0.0 -5.53390233018 -3.905 32.0
143 72 1 0.0 -4.30414625681 -4.615 32.0
144 73 1 0.0 3.07439018343 -4.615 32.0
145 73 1 0.0 4.30414625681 -3.905 32.0
146 74 1 0.0 5.53390233018 -4.615 32.0
147 74 1 0.0 6.76365840356 -3.905 32.0
148 75 1 0.0 7.99341447693 -4.615 32.0
149 75 1 0.0 9.2231705503 -3.905 32.0
150 76 1 0.0 10.4529266237 -4.615 32.0
151 76 1 0.0 11.6826826971 -3.905 32.0
152 77 1 0.0 -17.8314630639 -2.485 32.0
153 77 1 0.0 -16.6017069905 -1.775 32.0
154 78 1 0.0 -15.3719509172 -2.485 32.0
155 78 1 0.0 -14.1421948438 -1.775 32.0
156 79 1 0.0 -12.9124387704 -2.485 32.0
157 79 1 0.0 -11.6826826971 -1.775 32.0
158 80 1 0.0 -10.4529266237 -2.485 32.0
159 80 1 0.0 -9.2231705503 -1.775 32.0
160 81 1 0.0 -7.99341447693 -2.485 32.0
161 81 1 0.0 -6.76365840356 -1.775 32.0
162 82 1 0.0 -5.53390233018 -2.485 32.0
163 83 1 0.0 5.53390233018 -1.775 32.0
164 84 1 0.0 6.76365840356 -2.485 32.0
165 84 1 0.0 7.99341447693 -1.775 32.0
166 85 1 0.0 9.2231705503 -2.485 32.0
167 85 1 0.0 10.4529266237 -1.775 32.0
168 86 1 0.0 11.6826826971 -2.485 32.0
169 86 1 0.0 12.9124387704 -1.775 32.0
170 87 1 0.0 -16.6017069905 -0.355 32.0
171 87 1 0.0 -15.3719509172 0.355 32.0
172 88 1 0.0 -14.1421948438 -0.355 32.0
173 88 1 0.0 -12.9124387704 0.355 32.0
174 89 1 0.0 -11.6826826971 -0.355 32.0
175 89 1 0.0 -10.4529266237 0.355 32.0
176 90 1 0.0 -9.2231705503 -0.355 32.0
177 90 1 0.0 -7.99341447693 0.355 32.0
178 91 1 0.0 -6.76365840356 -0.355 32.0
179 91 1 0.0 -5.53390233018 0.355 32.0
180 92 1 0.0 5.53390233018 -0.355 32.0
181 92 1 0.0 6.76365840356 0.355 32.0
182 93 1 0.0 7.99341447693 -0.355 32.0
183 93 1 0.0 9.2231705503 0.355 32.0
184 94 1 0.0 10.4529266237 -0.355 32.0
185 94 1 0.0 11.6826826971 0.355 32.0
186 95 1 0.0 12.9124387704 -0.355 32.0
187 95 1 0.0 14.1421948438 0.355 32.0
188 96 1 0.0 -15.3719509172 1.775 32.0
189 96 1 0.0 -14.1421948438 2.485 32.0
190 97 1 0.0 -12.9124387704 1.775 32.0
191 97 1 0.0 -11.6826826971 2.485 32.0
192 98 1 0.0 -10.4529266237 1.775 32.0
193 98 1 0.0 -9.2231705503 2.485 32.0
194 99 1 0.0 -7.99341447693 1.775 32.0
195 99 1 0.0 -6.76365840356 2.485 32.0
196 100 1 0.0 -5.53390233018 1.775 32.0
197 101 1 0.0 5.53390233018 2.485 32.0
198 102 1 0.0 6.76365840356 1.775 32.0
199 102 1 0.0 7.99341447693 2.485 32.0
200 103 1 0.0 9.2231705503 1.775 32.0
201 103 1 0.0 10.4529266237 2.485 32.0
202 104 1 0.0 11.6826826971 1.775 32.0
203 104 1 0.0 12.9124387704 2.485 32.0
204 105 1 0.0 14.1421948438 1.775 32.0
205 105 1 0.0 15.3719509172 2.485 32.0
206 106 1 0.0 -14.1421948438 3.905 32.0
207 106 1 0.0 -12.9124387704 4.615 32.0
208 107 1 0.0 -11.6826826971 3.905 32.0
209 107 1 0.0 -10.4529266237 4.615 32.0
210 108 1 0.0 -9.2231705503 3.905 32.0
211 108 1 0.0 -7.99341447693 4.615 32.0
212 109 1 0.0 -6.76365840356 3.905 32.0
213 109 1 0.0 -5.53390233018 4.615 32.0
214 110 1 0.0 -4.30414625681 3.905 32.0
215 110 1 0.0 -3.07439018343 4.615 32.0
216 111 1 0.0 4.30414625681 4.615 32.0
217 112 1 0.0 5.53390233018 3.905 32.0
218 112 1 0.0 6.76365840356 4.615 32.0
219 113 1 0.0 7.99341447693 3.905 32.0
220 113 1 0.0 9.2231705503 4.615 32.0
221 114 1 0.0 10.4529266237 3.905 32.0
222 114 1 0.0 11.6826826971 4.615 32.0
223 115 1 0.0 12.9124387704 3.905 32.0
224 115 1 0.0 14.1421948438 4.615 32.0
225 116 1 0.0 15.3719509172 3.905 32.0
226 116 1 0.0 16.6017069905 4.615 32.0
227 117 1 0.0 -12.9124387704 6.035 32.0
228 117 1 0.0 -11.6826826971 6.745 32.0
229 118 1 0.0 -10.4529266237 6.035 32.0
230 118 1 0.0 -9.2231705503 6.745 32.0
231 119 1 0.0 -7.99341447693 6.035 32.0
232 119 1 0.0 -6.76365840356 6.745 32.0
233 120 1 0.0 -5.53390233018 6.035 32.0
234 120 1 0.0 -4.30414625681 6.745 32.0
235 121 1 0.0 -3.07439018343 6.035 32.0
236 121 1 0.0 -1.84463411006 6.745 32.0
237 122 1 0.0 -0.614878036687 6.035 32.0
238 122 1 0.0 0.614878036687 6.745 32.0
239 123 1 0.0 1.84463411006 6.035 32.0
240 123 1 0.0 3.07439018343 6.745 32.0
241 124 1 0.0 4.30414625681 6.035 32.0
242 124 1 0.0 5.53390233018 6.745 32.0
243 125 1 0.0 6.76365840356 6.035 32.0
244 125 1 0.0 7.99341447693 6.745 32.0
245 126 1 0.0 9.2231705503 6.035 32.0
246 126 1 0.0 10.4529266237 6.745 32.0
247 127 1 0.0 11.6826826971 6.035 32.0
248 127 1 0.0 12.9124387704 6.745 32.0
249 128 1 0.0 14.1421948438 6.035 32.0
250 128 1 0.0 15.3719509172 6.745 32.0
251 129 1 0.0 16.6017069905 6.035 32.0
252 129 1 0.0 17.8314630639 6.745 32.0
253 130 1 0.0 -11.6826826971 8.165 32.0
254 130 1 0.0 -10.4529266237 8.875 32.0
255 131 1 0.0 -9.2231705503 8.165 32.0
256 131 1 0.0 -7.99341447693 8.875 32.0
257 132 1 0.0 -6.76365840356 8.165 32.0
258 132 1 0.0 -5.53390233018 8.875 32.0
259 133 1 0.0 -4.30414625681 8.165 32.0
260 133 1 0.0 -3.07439018343 8.875 32.0
261 134 1 0.0 -1.84463411006 8.165 32.0
262 134 1 0.0 -0.614878036687 8.875 32.0
263 135 1 0.0 0.614878036687 8.165 32.0
264 135 1 0.0 1.84463411006 8.875 32.0
265 136 1 0.0 3.07439018343 8.165 32.0
266 136 1 0.0 4.30414625681 8.875 32.0
267 137 1 0.0 5.53390233018 8.165 32.0
268 137 1 0.0 6.76365840356 8.875 32.0
269 138 1 0.0 7.99341447693 8.165 32.0
270 138 1 0.0 9.2231705503 8.875 32.0
271 139 1 0.0 10.4529266237 8.165 32.0
272 139 1 0.0 11.6826826971 8.875 32.0
273 140 1 0.0 12.9124387704 8.165 32.0
274 140 1 0.0 14.1421948438 8.875 32.0
275 141 1 0.0 15.3719509172 8.165 32.0
276 141 1 0.0 16.6017069905 8.875 32.0
277 142 1 0.0 17.8314630639 8.165 32.0
278 142 1 0.0 19.0612191373 8.875 32.0
279 143 1 0.0 -10.4529266237 10.295 32.0
280 143 1 0.0 -9.2231705503 11.005 32.0
281 144 1 0.0 -7.99341447693 10.295 32.0
282 144 1 0.0 -6.76365840356 11.005 32.0
283 145 1 0.0 -5.53390233018 10.295 32.0
284 145 1 0.0 -4.30414625681 11.005 32.0
285 146 1 0.0 -3.07439018343 10.295 32.0
286 146 1 0.0 -1.84463411006 11.005 32.0
287 147 1 0.0 -0.614878036687 10.295 32.0
288 147 1 0.0 0.614878036687 11.005 32.0
289 148 1 0.0 1.84463411006 10.295 32.0
290 148 1 0.0 3.07439018343 11.005 32.0
291 149 1 0.0 4.30414625681 10.295 32.0
292 149 1 0.0 5.53390233018 11.005 32.0
293 150 1 0.0 6.76365840356 10.295 32.0
294 150 1 0.0 7.99341447693 11.005 32.0
295 151 1 0.0 9.2231705503 10.295 32.0
296 151 1 0.0 10.4529266237 11.005 32.0
297 152 1 0.0 11.6826826971 10.295 32.0
298 152 1 0.0 12.9124387704 11.005 32.0
299 153 1 0.0 14.1421948438 10.295 32.0
300 153 1 0.0 15.3719509172 11.005 32.0
301 154 1 0.0 16.6017069905 10.295 32.0
302 154 1 0.0 17.8314630639 11.005 32.0
303 155 1 0.0 19.0612191373 10.295 32.0
304 155 1 0.0 20.2909752107 11.005 32.0
305 156 1 0.0 -9.2231705503 12.425 32.0
306 156 1 0.0 -7.99341447693 13.135 32.0
307 157 1 0.0 -6.76365840356 12.425 32.0
308 157 1 0.0 -5.53390233018 13.135 32.0
309 158 1 0.0 -4.30414625681 12.425 32.0
310 158 1 0.0 -3.07439018343 13.135 32.0
311 159 1 0.0 -1.84463411006 12.425 32.0
312 159 1 0.0 -0.614878036687 13.135 32.0
313 160 1 0.0 0.614878036687 12.425 32.0
314 160 1 0.0 1.84463411006 13.135 32.0
315 161 1 0.0 3.07439018343 12.425 32.0
316 161 1 0.0 4.30414625681 13.135 32.0
317 162 1 0.0 5.53390233018 12.425 32.0
318 162 1 0.0 6.76365840356 13.135 32.0
319 163 1 0.0 7.99341447693 12.425 32.0
320 163 1 0.0 9.2231705503 13.135 32.0
321 164 1 0.0 10.4529266237 12.425 32.0
322 164 1 0.0 11.6826826971 13.135 32.0
323 165 1 0.0 12.9124387704 12.425 32.0
324 165 1 0.0 14.1421948438 13.135 32.0
325 166 1 0.0 15.3719509172 12.425 32.0
326 166 1 0.0 16.6017069905 13.135 32.0
327 167 1 0.0 17.8314630639 12.425 32.0
328 167 1 0.0 19.0612191373 13.135 32.0
329 168 1 0.0 20.2909752107 12.425 32.0
330 168 1 0.0 21.520731284 13.135 32.0
331 169 1 0.0 -25.2099995042 -15.265 58.26
332 169 1 0.0 -23.9802434308 -14.555 58.26
333 170 1 0.0 -22.7504873574 -15.265 58.26
334 170 1 0.0 -21.520731284 -14.555 58.26
335 171 1 0.0 -20.2909752107 -15.265 58.26
336 171 1 0.0 -19.0612191373 -14.555 58.26
337 172 1 0.0 -17.8314630639 -15.265 58.26
338 172 1 0.0 -16.6017069905 -14.555 58.26
339 173 1 0.0 -15.3719509172 -15.265 58.26
340 173 1 0.0 -14.1421948438 -14.555 58.26
341 174 1 0.0 -12.9124387704 -15.265 58.26
342 174 1 0.0 -11.6826826971 -14.555 58.26
343 175 1 0.0 -10.4529266237 -15.265 58.26
344 175 1 0.0 -9.2231705503 -14.555 58.26
345 176 1 0.0 -7.99341447693 -15.265 58.26
346 176 1 0.0 -6.76365840356 -14.555 58.26
347 177 1 0.0 -5.53390233018 -15.265 58.26
348 177 1 0.0 -4.30414625681 -14.555 58.26
349 178 1 0.0 -3.07439018343 -15.265 58.26
350 178 1 0.0 -1.84463411006 -14.555 58.26
351 179 1 0.0 -0.614878036687 -15.265 58.26
352 179 1 0.0 0.614878036687 -14.555 58.26
353 180 1 0.0 1.84463411006 -15.265 58.26
354 180 1 0.0 3.07439018343 -14.555 58.26
355 181 1 0.0 4.30414625681 -15.265 58.26
356 181 1 0.0 5.53390233018 -14.555 58.26
357 182 1 0.0 -23.9802434308 -13.135 58.26
358 182 1 0.0 -22.7504873574 -12.425 58.26
359 183 1 0.0 -21.520731284 -13.135 58.26
360 183 1 0.0 -20.2909752107 -12.425 58.26
361 184 1 0.0 -19.0612191373 -13.135 58.26
362 184 1 0.0 -17.8314630639 -12.425 58.26
363 185 1 0.0 -16.6017069905 -13.135 58.26
364 185 1 0.0 -15.3719509172 -12.425 58.26
365 186 1 0.0 -14.1421948438 -13.135 58.26
366 186 1 0.0 -12.9124387704 -12.425 58.26
367 187 1 0.0 -11.6826826971 -13.135 58.26
368 187 1 0.0 -10.4529266237 -12.425 58.26
369 188 1 0.0 -9.2231705503 -13.135 58.26
370 188 1 0.0 -7.99341447693 -12.425 58.26
371 189 1 0.0 -6.76365840356 -13.135 58.26
372 189 1 0.0 -5.53390233018 -12.425 58.26
373 190 1 0.0 -4.30414625681 -13.135 58.26
374 190 1 0.0 -3.07439018343 -12.425 58.26
375 191 1 0.0 -1.84463411006 -13.135 58.26
376 191 1 0.0 -0.614878036687 -12.425 58.26
377 192 1 0.0 0.614878036687 -13.135 58.26
378 192 1 0.0 1.84463411006 -12.425 58.26
379 193 1 0.0 3.07439018343 -13.135 58.26
380 193 1 0.0 4.30414625681 -12.425 58.26
381 194 1 0.0 5.53390233018 -13.135 58.26
382 194 1 0.0 6.76365840356 -12.425 58.26
383 195 1 0.0 -22.7504873574 -11.005 58.26
384 195 1 0.0 -21.520731284 -10.295 58.26
385 196 1 0.0 -20.2909752107 -11.005 58.26
386 196 1 0.0 -19.0612191373 -10.295 58.26
387 197 1 0.0 -17.8314630639 -11.005 58.26
388 197 1 0.0 -16.6017069905 -10.295 58.26
389 198 1 0.0 -15.3719509172 -11.005 58.26
390 198 1 0.0 -14.1421948438 -10.295 58.26
391 199 1 0.0 -12.9124387704 -11.005 58.26
392 199 1 0.0 -11.6826826971 -10.295 58.26
393 200 1 0.0 -10.4529266237 -11.005 58.26
394 200 1 0.0 -9.2231705503 -10.295 58.26
395 201 1 0.0 -7.99341447693 -11.005 58.26
396 201 1 0.0 -6.76365840356 -10.295 58.26
397 202 1 0.0 -5.53390233018 -11.005 58.26
398 202 1 0.0 -4.30414625681 -10.295 58.26
399 203 1 0.0 -3.07439018343 -11.005 58.26
400 203 1 0.0 -1.84463411006 -10.295 58.26
401 204 1 0.0 -0.614878036687 -11.005 58.26
402 204 1 0.0 0.614878036687 -10.295 58.26
403 205 1 0.0 1.84463411006 -11.005 58.26
404 205 1 0.0 3.07439018343 -10.295 58.26
405 206 1 0.0 4.30414625681 -11.005 58.26
406 206 1 0.0 5.53390233018 -10.295 58.26
407 207 1 0.0 6.76365840356 -11.005 58.26
408 207 1 0.0 7.99341447693 -10.295 58.26
409 208 1 0.0 -21.520731284 -8.875 58.26
410 208 1 0.0 -20.2909752107 -8.165 58.26
411 209 1 0.0 -19.0612191373 -8.875 58.26
412 209 1 0.0 -17.8314630639 -8.165 58.26
413 210 1 0.0 -16.6017069905 -8.875 58.26
414 210 1 0.0 -15.3719509172 -8.165 58.26
415 211 1 0.0 -14.1421948438 -8.875 58.26
416 211 1 0.0 -12.9124387704 -8.165 58.26
417 212 1 0.0 -11.6826826971 -8.875 58.26
418 212 1 0.0 -10.4529266237 -8.165 58.26
419 213 1 0.0 -9.2231705503 -8.875 58.26
420 213 1 0.0 -7.99341447693 -8.165 58.26
421 214 1 0.0 -6.76365840356 -8.875 58.26
422 214 1 0.0 -5.53390233018 -8.165 58.26
423 215 1 0.0 -4.30414625681 -8.875 58.26
424 215 1 0.0 -3.07439018343 -8.165 58.26
425 216 1 0.0 -1.84463411006 -8.875 58.26
426 216 1 0.0 -0.614878036687 -8.165 58.26
427 217 1 0.0 0.614878036687 -8.875 58.26
428 217 1 0.0 1.84463411006 -8.165 58.26
429 218 1 0.0 3.07439018343 -8.875 58.26
430 218 1 0.0 4.30414625681 -8.165 58.26
431 219 1 0.0 5.53390233018 -8.875 58.26
432 219 1 0.0 6.76365840356 -8.165 58.26
433 220 1 0.0 7.99341447693 -8.875 58.26
434 220 1 0.0 9.2231705503 -8.165 58.26
435 221 1 0.0 -20.2909752107 -6.745 58.26
436 221 1 0.0 -19.0612191373 -6.035 58.26
437 222 1 0.0 -17.8314630639 -6.745 58.26
438 222 1 0.0 -16.6017069905 -6.035 58.26
439 223 1 0.0 -15.3719509172 -6.745 58.26
440 223 1 0.0 -14.1421948438 -6.035 58.26
441 224 1 0.0 -12.9124387704 -6.745 58.26
442 224 1 0.0 -11.6826826971 -6.035 58.26
443 225 1 0.0 -10.4529266237 -6.745 58.26
444 225 1 0.0 -9.2231705503 -6.035 58.26
445 226 1 0.0 -7.99341447693 -6.745 58.26
446 226 1 0.0 -6.76365840356 -6.035 58.26
447 227 1 0.0 -5.53390233018 -6.745 58.26
448 227 1 0.0 -4.30414625681 -6.035 58.26
449 228 1 0.0 -3.07439018343 -6.745 58.26
450 228 1 0.0 -1.84463411006 -6.035 58.26
451 229 1 0.0 -0.614878036687 -6.745 58.26
452 229 1 0.0 0.614878036687 -6.035 58.26
453 230 1 0.0 1.84463411006 -6.745 58.26
454 230 1 0.0 3.07439018343 -6.035 58.26
455 231 1 0.0 4.30414625681 -6.745 58.26
456 231 1 0.0 5.53390233018 -6.035 58.26
457 232 1 0.0 6.76365840356 -6.745 58.26
458 232 1 0.0 7.99341447693 -6.035 58.26
459 233 1 0.0 9.2231705503 -6.745 58.26
460 233 1 0.0 10.4529266237 -6.035 58.26
461 234 1 0.0 -19.0612191373 -4.615 58.26
462 234 1 0.0 -17.8314630639 -3.905 58.26
463 235 1 0.0 -16.6017069905 -4.615 58.26
464 235 1 0.0 -15.3719509172 -3.905 58.26
465 236 1 0.0 -14.1421948438 -4.615 58.26
466 236 1 0.0 -12.9124387704 -3.905 58.26
467 237 1 0.0 -11.6826826971 -4.615 58.26
468 237 1 0.0 -10.4529266237 -3.905 58.26
469 238 1 0.0 -9.2231705503 -4.615 58.26
470 238 1 0.0 -7.99341447693 -3.905 58.26
471 239 1 0.0 -6.76365840356 -4.615 58.26
472 239 1 0.0 -5.53390233018 -3.905 58.26
473 240 1 0.0 -4.30414625681 -4.615 58.26
474 241 1 0.0 3.07439018343 -4.615 58.26
475 241 1 0.0 4.30414625681 -3.905 58.26
476 242 1 0.0 5.53390233018 -4.615 58.26
477 242 1 0.0 6.76365840356 -3.905 58.26
478 243 1 0.0 7.99341447693 -4.615 58.26
479 243 1 0.0 9.2231705503 -3.905 58.26
480 244 1 0.0 10.4529266237 -4.615 58.26
481 244 1 0.0 11.6826826971 -3.905 58.26
482 245 1 0.0 -17.8314630639 -2.485 58.26
483 245 1 0.0 -16.6017069905 -1.775 58.26
484 246 1 0.0 -15.3719509172 -2.485 58.26
485 246 1 0.0 -14.1421948438 -1.775 58.26
486 247 1 0.0 -12.9124387704 -2.485 58.26
487 247 1 0.0 -11.6826826971 -1.775 58.26
488 248 1 0.0 -10.4529266237 -2.485 58.26
489 248 1 0.0 -9.2231705503 -1.775 58.26
490 249 1 0.0 -7.99341447693 -2.485 58.26
491 249 1 0.0 -6.76365840356 -1.775 58.26
492 250 1 0.0 -5.53390233018 -2.485 58.26
493 251 1 0.0 5.53390233018 -1.775 58.26
494 252 1 0.0 6.76365840356 -2.485 58.26
495 252 1 0.0 7.99341447693 -1.775 58.26
496 253 1 0.0 9.2231705503 -2.485 58.26
497 253 1 0.0 10.4529266237 -1.775 58.26
498 254 1 0.0 11.6826826971 -2.485 58.26
499 254 1 0.0 12.9124387704 -1.775 58.26
500 255 1 0.0 -16.6017069905 -0.355 58.26
501 255 1 0.0 -15.3719509172 0.355 58.26
502 256 1 0.0 -14.1421948438 -0.355 58.26
503 256 1 0.0 -12.9124387704 0.355 58.26
504 257 1 0.0 -11.6826826971 -0.355 58.26
505 257 1 0.0 -10.4529266237 0.355 58.26
506 258 1 0.0 -9.2231705503 -0.355 58.26
507 258 1 0.0 -7.99341447693 0.355 58.26
508 259 1 0.0 -6.76365840356 -0.355 58.26
509 259 1 0.0 -5.53390233018 0.355 58.26
510 260 1 0.0 5.53390233018 -0.355 58.26
511 260 1 0.0 6.76365840356 0.355 58.26
512 261 1 0.0 7.99341447693 -0.355 58.26
513 261 1 0.0 9.2231705503 0.355 58.26
514 262 1 0.0 10.4529266237 -0.355 58.26
515 262 1 0.0 11.6826826971 0.355 58.26
516 263 1 0.0 12.9124387704 -0.355 58.26
517 263 1 0.0 14.1421948438 0.355 58.26
518 264 1 0.0 -15.3719509172 1.775 58.26
519 264 1 0.0 -14.1421948438 2.485 58.26
520 265 1 0.0 -12.9124387704 1.775 58.26
521 265 1 0.0 -11.6826826971 2.485 58.26
522 266 1 0.0 -10.4529266237 1.775 58.26
523 266 1 0.0 -9.2231705503 2.485 58.26
524 267 1 0.0 -7.99341447693 1.775 58.26
525 267 1 0.0 -6.76365840356 2.485 58.26
526 268 1 0.0 -5.53390233018 1.775 58.26
527 269 1 0.0 5.53390233018 2.485 58.26
528 270 1 0.0 6.76365840356 1.775 58.26
529 270 1 0.0 7.99341447693 2.485 58.26
530 271 1 0.0 9.2231705503 1.775 58.26
531 271 1 0.0 10.4529266237 2.485 58.26
532 272 1 0.0 11.6826826971 1.775 58.26
533 272 1 0.0 12.9124387704 2.485 58.26
534 273 1 0.0 14.1421948438 1.775 58.26
535 273 1 0.0 15.3719509172 2.485 58.26
536 274 1 0.0 -14.1421948438 3.905 58.26
537 274 1 0.0 -12.9124387704 4.615 58.26
538 275 1 0.0 -11.6826826971 3.905 58.26
539 275 1 0.0 -10.4529266237 4.615 58.26
540 276 1 0.0 -9.2231705503 3.905 58.26
541 276 1 0.0 -7.99341447693 4.615 58.26
542 277 1 0.0 -6.76365840356 3.905 58.26
543 277 1 0.0 -5.53390233018 4.615 58.26
544 278 1 0.0 -4.30414625681 3.905 58.26
545 278 1 0.0 -3.07439018343 4.615 58.26
546 279 1 0.0 4.30414625681 4.615 58.26
547 280 1 0.0 5.53390233018 3.905 58.26
548 280 1 0.0 6.76365840356 4.615 58.26
549 281 1 0.0 7.99341447693 3.905 58.26
550 281 1 0.0 9.2231705503 4.615 58.26
551 282 1 0.0 10.4529266237 3.905 58.26
552 282 1 0.0 11.6826826971 4.615 58.26
553 283 1 0.0 12.9124387704 3.905 58.26
554 283 1 0.0 14.1421948438 4.615 58.26
555 284 1 0.0 15.3719509172 3.905 58.26
556 284 1 0.0 16.6017069905 4.615 58.26
557 285 1 0.0 -12.9124387704 6.035 58.26
558 285 1 0.0 -11.6826826971 6.745 58.26
559 286 1 0.0 -10.4529266237 6.035 58.26
560 286 1 0.0 -9.2231705503 6.745 58.26
561 287 1 0.0 -7.99341447693 6.035 58.26
562 287 1 0.0 -6.76365840356 6.745 58.26
563 288 1 0.0 -5.53390233018 6.035 58.26
564 288 1 0.0 -4.30414625681 6.745 58.26
565 289 1 0.0 -3.07439018343 6.035 58.26
566 289 1 0.0 -1.84463411006 6.745 58.26
567 290 1 0.0 -0.614878036687 6.035 58.26
568 290 1 0.0 0.614878036687 6.745 58.26
569 291 1 0.0 1.84463411006 6.035 58.26
570 291 1 0.0 3.07439018343 6.745 58.26
571 292 1 0.0 4.30414625681 6.035 58.26
572 292 1 0.0 5.53390233018 6.745 58.26
573 293 1 0.0 6.76365840356 6.035 58.26
574 293 1 0.0 7.99341447693 6.745 58.26
575 294 1 0.0 9.2231705503 6.035 58.26
576 294 1 0.0 10.4529266237 6.745 58.26
577 295 1 0.0 11.6826826971 6.035 58.26
578 295 1 0.0 12.9124387704 6.745 58.26
579 296 1 0.0 14.1421948438 6.035 58.26
580 296 1 0.0 15.3719509172 6.745 58.26
581 297 1 0.0 16.6017069905 6.035 58.26
582 297 1 0.0 17.8314630639 6.745 58.26
583 298 1 0.0 -11.6826826971 8.165 58.26
584 298 1 0.0 -10.4529266237 8.875 58.26
585 299 1 0.0 -9.2231705503 8.165 58.26
586 299 1 0.0 -7.99341447693 8.875 58.26
587 300 1 0.0 -6.76365840356 8.165 58.26
588 300 1 0.0 -5.53390233018 8.875 58.26
589 301 1 0.0 -4.30414625681 8.165 58.26
590 301 1 0.0 -3.07439018343 8.875 58.26
591 302 1 0.0 -1.84463411006 8.165 58.26
592 302 1 0.0 -0.614878036687 8.875 58.26
593 303 1 0.0 0.614878036687 8.165 58.26
594 303 1 0.0 1.84463411006 8.875 58.26
595 304 1 0.0 3.07439018343 8.165 58.26
596 304 1 0.0 4.30414625681 8.875 58.26
597 305 1 0.0 5.53390233018 8.165 58.26
598 305 1 0.0 6.76365840356 8.875 58.26
599 306 1 0.0 7.99341447693 8.165 58.26
600 306 1 0.0 9.2231705503 8.875 58.26
601 307 1 0.0 10.4529266237 8.165 58.26
602 307 1 0.0 11.6826826971 8.875 58.26
603 308 1 0.0 12.9124387704 8.165 58.26
604 308 1 0.0 14.1421948438 8.875 58.26
605 309 1 0.0 15.3719509172 8.165 58.26
606 309 1 0.0 16.6017069905 8.875 58.26
607 310 1 0.0 17.8314630639 8.165 58.26
608 310 1 0.0 19.0612191373 8.875 58.26
609 311 1 0.0 -10.4529266237 10.295 58.26
610 311 1 0.0 -9.2231705503 11.005 58.26
611 312 1 0.0 -7.99341447693 10.295 58.26
612 312 1 0.0 -6.76365840356 11.005 58.26
613 313 1 0.0 -5.53390233018 10.295 58.26
614 313 1 0.0 -4.30414625681 11.005 58.26
615 314 1 0.0 -3.07439018343 10.295 58.26
616 314 1 0.0 -1.84463411006 11.005 58.26
617 315 1 0.0 -0.614878036687 10.295 58.26
618 315 1 0.0 0.614878036687 11.005 58.26
619 316 1 0.0 1.84463411006 10.295 58.26
620 316 1 0.0 3.07439018343 11.005 58.26
621 317 1 0.0 4.30414625681 10.295 58.26
622 317 1 0.0 5.53390233018 11.005 58.26
623 318 1 0.0 6.76365840356 10.295 58.26
624 318 1 0.0 7.99341447693 11.005 58.26
625 319 1 0.0 9.2231705503 10.295 58.26
626 319 1 0.0 10.4529266237 11.005 58.26
627 320 1 0.0 11.6826826971 10.295 58.26
628 320 1 0.0 12.9124387704 11.005 58.26
629 321 1 0.0 14.1421948438 10.295 58.26
630 321 1 0.0 15.3719509172 11.005 58.26
631 322 1 0.0 16.6017069905 10.295 58.26
632 322 1 0.0 17.8314630639 11.005 58.26
633 323 1 0.0 19.0612191373 10.295 58.26
634 323 1 0.0 20.2909752107 11.005 58.26
635 324 1 0.0 -9.2231705503 12.425 58.26
636 324 1 0.0 -7.99341447693 13.135 58.26
637 325 1 0.0 -6.76365840356 12.425 58.26
638 325 1 0.0 -5.53390233018 13.135 58.26
639 326 1 0.0 -4.30414625681 12.425 58.26
640 326 1 0.0 -3.07439018343 13.135 58.26
641 327 1 0.0 -1.84463411006 12.425 58.26
642 327 1 0.0 -0.614878036687 13.135 58.26
643 328 1 0.0 0.614878036687 12.425 58.26
644 328 1 0.0 1.84463411006 13.135 58.26
645 329 1 0.0 3.07439018343 12.425 58.26
646 329 1 0.0 4.30414625681 13.135 58.26
647 330 1 0.0 5.53390233018 12.425 58.26
648 330 1 0.0 6.76365840356 13.135 58.26
649 331 1 0.0 7.99341447693 12.425 58.26
650 331 1 0.0 9.2231705503 13.135 58.26
651 332 1 0.0 10.4529266237 12.425 58.26
652 332 1 0.0 11.6826826971 13.135 58.26
653 333 1 0.0 12.9124387704 12.425 58.26
654 333 1 0.0 14.1421948438 13.135 58.26
655 334 1 0.0 15.3719509172 12.425 58.26
656 334 1 0.0 16.6017069905 13.135 58.26
657 335 1 0.0 17.8314630639 12.425 58.26
658 335 1 0.0 19.0612191373 13.135 58.26
659 336 1 0.0 20.2909752107 12.425 58.26
660 336 1 0.0 21.520731284 13.135 58.26
661 337 1 0.0 -0.614878036687 5.45719351276 33.065
662 337 1 0.0 0.614878036687 5.45719351276 33.775
663 338 1 0.0 -1.81380156167 5.18354704142 35.195
664 338 1 0.0 -0.614878040769 5.4571935123 35.905
665 339 1 0.0 -2.92177350197 4.64997587509 37.325
666 339 1 0.0 -1.81380156555 5.18354704006 38.035
667 340 1 0.0 -3.88323551765 3.88323550022 39.455
668 340 1 0.0 -2.92177350545 4.6499758729 40.165
669 341 1 0.0 -4.6499758882 2.92177348111 41.585
670 341 1 0.0 -3.88323552056 3.88323549732 42.295
671 342 1 0.0 -5.18354704956 1.81380153841 43.715
672 342 1 0.0 -4.64997589039 2.92177347763 44.425
673 343 1 0.0 -5.45719351552 0.614878012195 45.845
674 343 1 0.0 -5.18354705092 1.81380153453 46.555
675 344 1 0.0 -5.45719350954 -0.614878065261 47.975
676 344 1 0.0 -5.45719351598 0.614878008113 48.685
677 345 1 0.0 -5.18354703192 -1.81380158881 50.105
678 345 1 0.0 -5.45719350908 -0.614878069343 50.815
679 346 1 0.0 -4.64997585979 -2.92177352632 52.235
680 346 1 0.0 -5.18354703057 -1.81380159269 52.945
681 347 1 0.0 -3.88323547989 -3.88323553798 54.365
682 347 1 0.0 -4.64997585761 -2.9217735298 55.075
683 348 1 0.0 -2.92177345676 -4.6499759035 56.495
684 348 1 0.0 -3.88323547699 -3.88323554089 57.205
685 349 1 0.0 -2.92177349386 4.64997588019 33.065
686 349 1 0.0 -1.8138015565 5.18354704323 33.775
687 350 1 0.0 -3.88323551087 3.883235507 35.195
688 350 1 0.0 -2.92177349734 4.649975878 35.905
689 351 1 0.0 -4.6499758831 2.92177348922 37.325
690 351 1 0.0 -3.88323551378 3.8832355041 38.035
691 352 1 0.0 -5.1835470464 1.81380154745 39.455
692 352 1 0.0 -4.64997588529 2.92177348574 40.165
693 353 1 0.0 -5.45719351445 0.61487802172 41.585
694 353 1 0.0 -5.18354704775 1.81380154358 42.295
695 354 1 0.0 -5.45719351062 -0.614878055736 43.715
696 354 1 0.0 -5.45719351491 0.614878017638 44.425
697 355 1 0.0 -5.18354703509 -1.81380157977 45.845
698 355 1 0.0 -5.45719351016 -0.614878059818 46.555
699 356 1 0.0 -4.64997586489 -2.92177351821 47.975
700 356 1 0.0 -5.18354703373 -1.81380158364 48.685
701 357 1 0.0 -3.88323548667 -3.88323553121 50.105
702 357 1 0.0 -4.64997586271 -2.92177352168 50.815
703 358 1 0.0 -2.92177346487 -4.6499758984 52.235
704 358 1 0.0 -3.88323548376 -3.88323553411 52.945
705 359 1 0.0 -1.81380152031 -5.18354705589 54.365
706 359 1 0.0 -2.9217734614 -4.64997590059 55.075
707 360 1 0.0 -0.614877993146 -5.45719351767 56.495
708 360 1 0.0 -1.81380151644 -5.18354705725 57.205
709 361 1 0.0 -4.649975878 2.92177349734 33.065
710 361 1 0.0 -3.883235507 3.88323551087 33.775
711 362 1 0.0 -5.18354704323 1.8138015565 35.195
712 362 1 0.0 -4.64997588019 2.92177349386 35.905
713 363 1 0.0 -5.45719351338 0.614878031244 37.325
714 363 1 0.0 -5.18354704459 1.81380155262 38.035
715 364 1 0.0 -5.45719351169 -0.614878046212 39.455
716 364 1 0.0 -5.45719351384 0.614878027162 40.165
717 365 1 0.0 -5.18354703826 -1.81380157072 41.585
718 365 1 0.0 -5.45719351123 -0.614878050293 42.295
719 366 1 0.0 -4.64997586999 -2.92177351009 43.715