LAMMPS 'data.' description

     290 atoms
       1 bonds
       3 atom types
       1 bond types
	
    0.0 20.090    xlo xhi
    0.0 19.738    ylo yhi
    0.0 13.142    zlo zhi

Atoms #molecular

1 1 2 10.069108 1.379686 9.223056
2 1 2 10.020892 18.358315 3.918945
3 1 2 20.065891 18.358315 2.652056
4 1 2 0.024107 1.379686 10.489944
5 1 2 10.020892 11.248686 3.918945
6 1 2 10.069108 8.489314 9.223056
7 1 2 0.024107 8.489314 10.489944
8 1 2 20.065891 11.248686 2.652056
9 1 2 7.784875 1.466533 10.524114
10 1 2 12.305125 18.271467 2.617886
11 1 2 2.260125 18.271467 3.953115
12 1 2 17.829874 1.466533 9.188887
13 1 2 12.305125 11.335534 2.617886
14 1 2 7.784875 8.402467 10.524114
15 1 2 17.829874 8.402467 9.188887
16 1 2 2.260125 11.335534 3.953115
17 1 2 8.025955 2.696211 8.215065
18 1 2 12.064045 17.041790 4.926936
19 1 2 2.019045 17.041790 1.644064
20 1 2 18.070955 2.696211 11.497935
21 1 2 12.064045 12.565211 4.926936
22 1 2 8.025955 7.172789 8.215065
23 1 2 18.070955 7.172789 11.497935
24 1 2 2.019045 12.565211 1.644064
25 1 2 7.979748 0.067109 8.313629
26 1 2 12.110252 19.670891 4.828371
27 1 2 2.065252 19.670891 1.742630
28 1 2 18.024748 0.067109 11.399371
29 1 2 12.110252 9.936110 4.828371
30 1 2 7.979748 9.801891 8.313629
31 1 2 18.024748 9.801891 11.399371
32 1 2 2.065252 9.936110 1.742630
33 1 2 6.609610 0.759913 12.776652
34 1 2 13.480391 18.978088 0.365348
35 1 2 3.435390 18.978088 6.205651
36 1 2 16.654610 0.759913 6.936348
37 1 2 13.480391 10.628914 0.365348
38 1 2 6.609610 9.109087 12.776652
39 1 2 16.654610 9.109087 6.936348
40 1 2 3.435390 10.628914 6.205651
41 1 2 6.623673 18.859659 10.717301
42 1 2 13.466328 0.878341 2.424699
43 1 2 3.421327 0.878341 4.146301
44 1 2 16.668673 18.859659 8.995699
45 1 2 13.466328 8.990660 2.424699
46 1 2 6.623673 10.747341 10.717301
47 1 2 16.668673 10.747341 8.995699
48 1 2 3.421327 8.990660 4.146301
49 1 2 5.165139 1.308629 10.652905
50 1 2 14.924861 18.429373 2.489095
51 1 2 4.879861 18.429373 4.081906
52 1 2 15.210139 1.308629 9.060095
53 1 2 14.924861 11.177629 2.489095
54 1 2 5.165139 8.560370 10.652905
55 1 2 15.210139 8.560370 9.060095
56 1 2 4.879861 11.177629 4.081906
57 1 2 5.846190 2.558045 1.393052
58 1 2 14.243810 17.179956 11.748948
59 1 2 4.198810 17.179956 7.964052
60 1 2 15.891191 2.558045 5.177948
61 1 2 14.243810 12.427045 11.748948
62 1 2 5.846190 7.310956 1.393052
63 1 2 15.891191 7.310956 5.177948
64 1 2 4.198810 12.427045 7.964052
65 1 2 4.086306 0.898079 0.361405
66 1 2 16.003695 18.839922 12.780596
67 1 2 5.958694 18.839922 6.932405
68 1 2 14.131307 0.898079 6.209595
69 1 2 16.003695 10.767079 12.780596
70 1 2 4.086306 8.970922 0.361405
71 1 2 14.131307 8.970922 6.209595
72 1 2 5.958694 10.767079 6.932405
73 1 2 5.898424 0.019738 2.055409
74 1 2 14.191577 19.718264 11.086592
75 1 2 4.146576 19.718264 8.626409
76 1 2 15.943423 0.019738 4.515591
77 1 2 14.191577 9.888739 11.086592
78 1 2 5.898424 9.849262 2.055409
79 1 2 15.943423 9.849262 4.515591
80 1 2 4.146576 9.888739 8.626409
81 1 2 2.159675 2.496857 1.160439
82 1 2 17.930325 17.241144 11.981562
83 1 2 7.885325 17.241144 7.731439
84 1 2 12.204676 2.496857 5.410562
85 1 2 17.930325 12.365858 11.981562
86 1 2 2.159675 7.372143 1.160439
87 1 2 12.204676 7.372143 5.410562
88 1 2 7.885325 12.365858 7.731439
89 1 2 1.699614 0.730306 12.409990
90 1 2 18.390387 19.007694 0.732009
91 1 2 8.345387 19.007694 5.838990
92 1 2 11.744614 0.730306 7.303010
93 1 2 18.390387 10.599306 0.732009
94 1 2 1.699614 9.138695 12.409990
95 1 2 11.744614 9.138695 7.303010
96 1 2 8.345387 10.599306 5.838990
97 1 2 2.613709 1.541538 10.079914
98 1 2 17.476292 18.196463 3.062086
99 1 2 7.431291 18.196463 3.508914
100 1 2 12.658710 1.541538 9.633086
101 1 2 17.476292 11.410539 3.062086
102 1 2 2.613709 8.327462 10.079914
103 1 2 12.658710 8.327462 9.633086
104 1 2 7.431291 11.410539 3.508914
105 1 2 1.462552 18.926769 10.292815
106 1 2 18.627449 0.811232 2.849185
107 1 2 8.582448 0.811232 3.721815
108 1 2 11.507552 18.926769 9.420185
109 1 2 18.627449 9.057768 2.849185
110 1 2 1.462552 10.680233 10.292815
111 1 2 11.507552 10.680233 9.420185
112 1 2 8.582448 9.057768 3.721815
113 1 2 4.421809 2.591599 8.484475
114 1 2 15.668191 17.146402 4.657525
115 1 2 5.623191 17.146402 1.913476
116 1 2 14.466809 2.591599 11.228525
117 1 2 15.668191 12.460599 4.657525
118 1 2 4.421809 7.277401 8.484475
119 1 2 14.466809 7.277401 11.228525
120 1 2 5.623191 12.460599 1.913476
121 1 2 9.866199 16.872044 9.421500
122 1 2 10.223801 2.865958 3.720500
123 1 2 0.178801 2.865958 2.850500
124 1 2 19.911200 16.872044 10.291500
125 1 2 10.223801 7.003042 3.720500
126 1 2 9.866199 12.734959 9.421500
127 1 2 19.911200 12.734959 10.291500
128 1 2 0.178801 7.003042 2.850500
129 1 2 7.395129 16.404253 10.175851
130 1 2 12.694871 3.333749 2.966150
131 1 2 2.649871 3.333749 3.604850
132 1 2 17.440128 16.404253 9.537149
133 1 2 12.694871 6.535252 2.966150
134 1 2 7.395129 13.202749 10.175851
135 1 2 17.440128 13.202749 9.537149
136 1 2 2.649871 6.535252 3.604850
137 1 2 8.564367 14.803500 8.451621
138 1 2 11.525633 4.934500 4.690380
139 1 2 1.480633 4.934500 1.880620
140 1 2 18.609367 14.803500 11.261379
141 1 2 6.462953 16.996393 12.565066
142 1 2 13.627048 2.741608 0.576934
143 1 2 3.582047 2.741608 5.994066
144 1 2 16.507952 16.996393 7.147934
145 1 2 13.627048 7.127391 0.576934
146 1 2 6.462953 12.610608 12.565066
147 1 2 16.507952 12.610608 7.147934
148 1 2 3.582047 7.127391 5.994066
149 1 2 4.841690 16.939152 10.500459
150 1 2 15.248310 2.798848 2.641542
151 1 2 5.203310 2.798848 3.929458
152 1 2 14.886690 16.939152 9.212542
153 1 2 15.248310 7.070153 2.641542
154 1 2 4.841690 12.667849 10.500459
155 1 2 14.886690 12.667849 9.212542
156 1 2 5.203310 7.070153 3.929458
157 1 2 5.912487 14.803500 0.760922
158 1 2 14.177514 4.934500 12.381078
159 1 2 4.132513 4.934500 7.331922
160 1 2 15.957486 14.803500 5.810078
161 1 2 3.969784 16.408201 0.003943
162 1 2 16.120216 3.329800 13.138058
163 1 2 6.075216 3.329800 6.574943
164 1 2 14.014784 16.408201 6.567058
165 1 2 16.120216 6.539200 13.138058
166 1 2 3.969784 13.198801 0.003943
167 1 2 14.014784 13.198801 6.567058
168 1 2 6.075216 6.539200 6.574943
169 1 2 1.904532 14.803500 0.269411
170 1 2 18.185469 4.934500 12.872589
171 1 2 8.140469 4.934500 6.840411
172 1 2 11.949532 14.803500 6.301589
173 1 2 1.625281 17.112846 12.189205
174 1 2 18.464720 2.625154 0.952795
175 1 2 8.419719 2.625154 5.618205
176 1 2 11.670281 17.112846 7.523795
177 1 2 18.464720 7.243846 0.952795
178 1 2 1.625281 12.494155 12.189205
179 1 2 11.670281 12.494155 7.523795
180 1 2 8.419719 7.243846 5.618205
181 1 2 2.364593 16.520706 9.732965
182 1 2 17.725407 3.217294 3.409035
183 1 2 7.680407 3.217294 3.161965
184 1 2 12.409593 16.520706 9.980035
185 1 2 17.725407 6.651707 3.409035
186 1 2 2.364593 13.086294 9.732965
187 1 2 12.409593 13.086294 9.980035
188 1 2 7.680407 6.651707 3.161965
189 1 2 4.251044 14.803500 9.085064
190 1 2 15.838956 4.934500 4.056936
191 1 2 5.793956 4.934500 2.514064
192 1 2 14.296044 14.803500 10.627936
193 1 3 8.465926 1.403372 9.065352
194 1 3 11.624074 18.334629 4.076648
195 1 3 1.579074 18.334629 2.494352
196 1 3 18.510927 1.403372 10.647648
197 1 3 11.624074 11.272372 4.076648
198 1 3 8.465926 8.465629 9.065352
199 1 3 18.510927 8.465629 10.647648
200 1 3 1.579074 11.272372 2.494352
201 1 3 6.547331 0.663197 11.170700
202 1 3 13.542670 19.074804 1.971300
203 1 3 3.497669 19.074804 4.599700
204 1 3 16.592331 0.663197 8.542300
205 1 3 13.542670 10.532197 1.971300
206 1 3 6.547331 9.205804 11.170700
207 1 3 16.592331 9.205804 8.542300
208 1 3 3.497669 10.532197 4.599700
209 1 3 5.609128 1.057957 0.860801
210 1 3 14.480873 18.680044 12.281199
211 1 3 4.435872 18.680044 7.431801
212 1 3 15.654127 1.057957 5.710199
213 1 3 14.480873 10.926957 12.281199
214 1 3 5.609128 8.811044 0.860801
215 1 3 15.654127 8.811044 5.710199
216 1 3 4.435872 10.926957 7.431801
217 1 3 2.503214 1.014533 0.632130
218 1 3 17.586786 18.723467 12.509871
219 1 3 7.541786 18.723467 7.203130
220 1 3 12.548214 1.014533 5.938870
221 1 3 17.586786 10.883533 12.509871
222 1 3 2.503214 8.854467 0.632130
223 1 3 12.548214 8.854467 5.938870
224 1 3 7.541786 10.883533 7.203130
225 1 3 1.448489 0.710568 10.819809
226 1 3 18.641512 19.027433 2.322191
227 1 3 8.596512 19.027433 4.248809
228 1 3 11.493488 0.710568 8.893191
229 1 3 18.641512 10.579569 2.322191
230 1 3 1.448489 9.158432 10.819809
231 1 3 11.493488 9.158432 8.893191
232 1 3 8.596512 10.579569 4.248809
233 1 3 4.086306 1.356001 9.458298
234 1 3 16.003695 18.382000 3.683703
235 1 3 5.958694 18.382000 2.887297
236 1 3 14.131307 1.356001 10.254703
237 1 3 16.003695 11.225001 3.683703
238 1 3 4.086306 8.513000 9.458298
239 1 3 14.131307 8.513000 10.254703
240 1 3 5.958694 11.225001 2.887297
241 1 3 8.427755 16.331223 8.943130
242 1 3 11.662245 3.406778 4.198869
243 1 3 1.617245 3.406778 2.372131
244 1 3 18.472755 16.331223 10.769870
245 1 3 11.662245 6.462221 4.198869
246 1 3 8.427755 13.275779 8.943130
247 1 3 18.472755 13.275779 10.769870
248 1 3 1.617245 6.462221 2.372131
249 1 3 6.332368 17.300358 10.988026
250 1 3 13.757632 2.437643 2.153974
251 1 3 3.712632 2.437643 4.417026
252 1 3 16.377367 17.300358 8.724975
253 1 3 13.757632 7.431357 2.153974
254 1 3 6.332368 12.306643 10.988026
255 1 3 16.377367 12.306643 8.724975
256 1 3 3.712632 7.431357 4.417026
257 1 3 5.490597 16.339117 0.528308
258 1 3 14.599403 3.398884 12.613692
259 1 3 4.554403 3.398884 7.099308
260 1 3 15.535597 16.339117 6.042692
261 1 3 14.599403 6.470118 12.613692
262 1 3 5.490597 13.267884 0.528308
263 1 3 15.535597 13.267884 6.042692
264 1 3 4.554403 6.470118 7.099308
265 1 3 2.380665 16.341091 0.240499
266 1 3 17.709335 3.396910 12.901502
267 1 3 7.664335 3.396910 6.811499
268 1 3 12.425665 16.341091 6.330502
269 1 3 17.709335 6.472089 12.901502
270 1 3 2.380665 13.265910 0.240499
271 1 3 12.425665 13.265910 6.330502
272 1 3 7.664335 6.472089 6.811499
273 1 3 1.319913 17.357597 10.627936
274 1 3 18.770088 2.380403 2.514064
275 1 3 8.725087 2.380403 4.056937
276 1 3 11.364913 17.357597 9.085064
277 1 3 18.770088 7.488598 2.514064
278 1 3 1.319913 12.249403 10.627936
279 1 3 11.364913 12.249403 9.085064
280 1 3 8.725087 7.488598 4.056937
281 1 3 3.911523 16.358856 9.320307
282 1 3 16.178476 3.379145 3.821693
283 1 3 6.133477 3.379145 2.749307
284 1 3 13.956523 16.358856 10.392694
285 1 3 16.178476 6.489854 3.821693
286 1 3 3.911523 13.248146 9.320307
287 1 3 13.956523 13.248146 10.392694
288 1 3 6.133477 6.489854 2.749307
299 2 1 0.00000  0.000000 0.000000
300 2 1 0.0000   0.000000 1.330000

Bonds 

      1   1  299  300
