LAMMPS Description

     3 atoms
     2 bonds
     1 angles

     2 atom types
     1 bond types
     1 angle types 

  0.0 3.11 xlo xhi
  0.0 3.11 ylo yhi
  0.0 3.11 zlo zhi

Masses

    1 15.9994
    2 1.008

Atoms

1 1 1 -0.8476 0.0 0.0 0.0
2 1 2 0.4238 0.8164904 0.0 0.577359
3 1 2 0.4238 -0.8164904 0.0 0.577359

Bonds

1 1 1 2 
2 1 1 3 

Angles 

1 1 2 1 3 
