LAMMPS Description

     3  atoms
     0  bonds
     0  angles
     0  dihedrals
     0  impropers

     2  atom types

  -6 6 xlo xhi
  -6 6 ylo yhi
  -6 6 zlo zhi

Atoms # atomic

1 1 0.0 0.0 0.0
2 2 0.8164904 0.577359 0.0
3 2 -0.8164904 0.577359 0.0

